ITEM: TIMESTEP
0
ITEM: NUMBER OF ATOMS
769
ITEM: BOX BOUNDS pp ss pp
0.0000000000000000e+00 5.1374269009840255e+01
-2.2245711031688635e-03 2.2247935602791809e+01
-3.2108918131150160e-01 3.2108918131150160e-01
ITEM: ATOMS id type xs ys zs
1 2 0 9.998e-05 0.5
3 2 0.025 9.998e-05 0.5
5 2 0.05 9.998e-05 0.5
7 2 0.075 9.998e-05 0.5
9 2 0.1 9.998e-05 0.5
11 2 0.125 9.998e-05 0.5
13 2 0.15 9.998e-05 0.5
15 2 0.175 9.998e-05 0.5
17 2 0.2 9.998e-05 0.5
19 2 0.225 9.998e-05 0.5
21 2 0.25 9.998e-05 0.5
23 2 0.275 9.998e-05 0.5
25 2 0.3 9.998e-05 0.5
27 2 0.325 9.998e-05 0.5
29 2 0.35 9.998e-05 0.5
31 2 0.375 9.998e-05 0.5
33 2 0.4 9.998e-05 0.5
35 2 0.425 9.998e-05 0.5
37 2 0.45 9.998e-05 0.5
39 2 0.475 9.998e-05 0.5
41 2 0.5 9.998e-05 0.5
43 2 0.525 9.998e-05 0.5
45 2 0.55 9.998e-05 0.5
47 2 0.575 9.998e-05 0.5
49 2 0.6 9.998e-05 0.5
51 2 0.625 9.998e-05 0.5
53 2 0.65 9.998e-05 0.5
55 2 0.675 9.998e-05 0.5
57 2 0.7 9.998e-05 0.5
59 2 0.725 9.998e-05 0.5
61 2 0.75 9.998e-05 0.5
63 2 0.775 9.998e-05 0.5
65 2 0.8 9.998e-05 0.5
67 2 0.825 9.998e-05 0.5
69 2 0.85 9.998e-05 0.5
71 2 0.875 9.998e-05 0.5
73 2 0.9 9.998e-05 0.5
75 2 0.925 9.998e-05 0.5
77 2 0.95 9.998e-05 0.5
79 2 0.975 9.998e-05 0.5
2 2 0.0125 0.05009 0.5
4 2 0.0375 0.05009 0.5
6 2 0.0625 0.05009 0.5
8 2 0.0875 0.05009 0.5
10 2 0.1125 0.05009 0.5
12 2 0.1375 0.05009 0.5
14 2 0.1625 0.05009 0.5
16 2 0.1875 0.05009 0.5
18 2 0.2125 0.05009 0.5
20 2 0.2375 0.05009 0.5
22 2 0.2625 0.05009 0.5
24 2 0.2875 0.05009 0.5
26 2 0.3125 0.05009 0.5
28 2 0.3375 0.05009 0.5
30 2 0.3625 0.05009 0.5
32 2 0.3875 0.05009 0.5
34 2 0.4125 0.05009 0.5
36 2 0.4375 0.05009 0.5
38 2 0.4625 0.05009 0.5
40 2 0.4875 0.05009 0.5
42 2 0.5125 0.05009 0.5
44 2 0.5375 0.05009 0.5
46 2 0.5625 0.05009 0.5
48 2 0.5875 0.05009 0.5
50 2 0.6125 0.05009 0.5
52 2 0.6375 0.05009 0.5
54 2 0.6625 0.05009 0.5
56 2 0.6875 0.05009 0.5
58 2 0.7125 0.05009 0.5
60 2 0.7375 0.05009 0.5
62 2 0.7625 0.05009 0.5
64 2 0.7875 0.05009 0.5
66 2 0.8125 0.05009 0.5
68 2 0.8375 0.05009 0.5
70 2 0.8625 0.05009 0.5
72 2 0.8875 0.05009 0.5
74 2 0.9125 0.05009 0.5
76 2 0.9375 0.05009 0.5
78 2 0.9625 0.05009 0.5
80 2 0.9875 0.05009 0.5
81 2 0 0.10008 0.5
83 2 0.025 0.10008 0.5
85 2 0.05 0.10008 0.5
87 2 0.075 0.10008 0.5
89 2 0.1 0.10008 0.5
91 2 0.125 0.10008 0.5
93 2 0.15 0.10008 0.5
95 2 0.175 0.10008 0.5
97 2 0.2 0.10008 0.5
99 2 0.225 0.10008 0.5
101 2 0.25 0.10008 0.5
103 2 0.275 0.10008 0.5
105 2 0.3 0.10008 0.5
107 2 0.325 0.10008 0.5
109 2 0.35 0.10008 0.5
111 2 0.375 0.10008 0.5
113 2 0.4 0.10008 0.5
115 2 0.425 0.10008 0.5
117 2 0.45 0.10008 0.5
119 2 0.475 0.10008 0.5
121 2 0.5 0.10008 0.5
123 2 0.525 0.10008 0.5
125 2 0.55 0.10008 0.5
127 2 0.575 0.10008 0.5
129 2 0.6 0.10008 0.5
131 2 0.625 0.10008 0.5
133 2 0.65 0.10008 0.5
135 2 0.675 0.10008 0.5
137 2 0.7 0.10008 0.5
139 2 0.725 0.10008 0.5
141 2 0.75 0.10008 0.5
143 2 0.775 0.10008 0.5
145 2 0.8 0.10008 0.5
147 2 0.825 0.10008 0.5
149 2 0.85 0.10008 0.5
151 2 0.875 0.10008 0.5
153 2 0.9 0.10008 0.5
155 2 0.925 0.10008 0.5
157 2 0.95 0.10008 0.5
159 2 0.975 0.10008 0.5
82 1 0.0125 0.15007 0.5
84 1 0.0375 0.15007 0.5
86 1 0.0625 0.15007 0.5
88 1 0.0875 0.15007 0.5
90 1 0.1125 0.15007 0.5
92 1 0.1375 0.15007 0.5
94 1 0.1625 0.15007 0.5
96 1 0.1875 0.15007 0.5
98 1 0.2125 0.15007 0.5
100 1 0.2375 0.15007 0.5
102 1 0.2625 0.15007 0.5
104 1 0.2875 0.15007 0.5
106 1 0.3125 0.15007 0.5
108 1 0.3375 0.15007 0.5
110 1 0.3625 0.15007 0.5
112 1 0.3875 0.15007 0.5
114 1 0.4125 0.15007 0.5
116 1 0.4375 0.15007 0.5
118 1 0.4625 0.15007 0.5
120 1 0.4875 0.15007 0.5
122 1 0.5125 0.15007 0.5
124 1 0.5375 0.15007 0.5
126 1 0.5625 0.15007 0.5
128 1 0.5875 0.15007 0.5
130 1 0.6125 0.15007 0.5
132 1 0.6375 0.15007 0.5
134 1 0.6625 0.15007 0.5
136 1 0.6875 0.15007 0.5
138 1 0.7125 0.15007 0.5
140 1 0.7375 0.15007 0.5
142 1 0.7625 0.15007 0.5
144 1 0.7875 0.15007 0.5
146 1 0.8125 0.15007 0.5
148 1 0.8375 0.15007 0.5
150 1 0.8625 0.15007 0.5
152 1 0.8875 0.15007 0.5
154 1 0.9125 0.15007 0.5
156 1 0.9375 0.15007 0.5
158 1 0.9625 0.15007 0.5
160 1 0.9875 0.15007 0.5
161 1 0 0.20006 0.5
163 1 0.025 0.20006 0.5
165 1 0.05 0.20006 0.5
167 1 0.075 0.20006 0.5
169 1 0.1 0.20006 0.5
171 1 0.125 0.20006 0.5
173 1 0.15 0.20006 0.5
175 1 0.175 0.20006 0.5
177 1 0.2 0.20006 0.5
179 1 0.225 0.20006 0.5
181 1 0.25 0.20006 0.5
183 1 0.275 0.20006 0.5
185 1 0.3 0.20006 0.5
187 1 0.325 0.20006 0.5
189 1 0.35 0.20006 0.5
191 1 0.375 0.20006 0.5
193 1 0.4 0.20006 0.5
195 1 0.425 0.20006 0.5
197 1 0.45 0.20006 0.5
199 1 0.475 0.20006 0.5
201 1 0.5 0.20006 0.5
203 1 0.525 0.20006 0.5
205 1 0.55 0.20006 0.5
207 1 0.575 0.20006 0.5
209 1 0.6 0.20006 0.5
211 1 0.625 0.20006 0.5
213 1 0.65 0.20006 0.5
215 1 0.675 0.20006 0.5
217 1 0.7 0.20006 0.5
219 1 0.725 0.20006 0.5
221 1 0.75 0.20006 0.5
223 1 0.775 0.20006 0.5
225 1 0.8 0.20006 0.5
227 1 0.825 0.20006 0.5
229 1 0.85 0.20006 0.5
231 1 0.875 0.20006 0.5
233 1 0.9 0.20006 0.5
235 1 0.925 0.20006 0.5
237 1 0.95 0.20006 0.5
239 1 0.975 0.20006 0.5
162 1 0.0125 0.25005 0.5
164 1 0.0375 0.25005 0.5
166 1 0.0625 0.25005 0.5
168 1 0.0875 0.25005 0.5
170 1 0.1125 0.25005 0.5
172 1 0.1375 0.25005 0.5
174 1 0.1625 0.25005 0.5
176 1 0.1875 0.25005 0.5
186 1 0.3125 0.25005 0.5
188 1 0.3375 0.25005 0.5
190 1 0.3625 0.25005 0.5
192 1 0.3875 0.25005 0.5
194 1 0.4125 0.25005 0.5
196 1 0.4375 0.25005 0.5
198 1 0.4625 0.25005 0.5
200 1 0.4875 0.25005 0.5
202 1 0.5125 0.25005 0.5
204 1 0.5375 0.25005 0.5
206 1 0.5625 0.25005 0.5
208 1 0.5875 0.25005 0.5
210 1 0.6125 0.25005 0.5
212 1 0.6375 0.25005 0.5
214 1 0.6625 0.25005 0.5
216 1 0.6875 0.25005 0.5
218 1 0.7125 0.25005 0.5
220 1 0.7375 0.25005 0.5
222 1 0.7625 0.25005 0.5
224 1 0.7875 0.25005 0.5
226 1 0.8125 0.25005 0.5
228 1 0.8375 0.25005 0.5
230 1 0.8625 0.25005 0.5
232 1 0.8875 0.25005 0.5
234 1 0.9125 0.25005 0.5
236 1 0.9375 0.25005 0.5
238 1 0.9625 0.25005 0.5
240 1 0.9875 0.25005 0.5
241 1 0 0.30004 0.5
243 1 0.025 0.30004 0.5
245 1 0.05 0.30004 0.5
247 1 0.075 0.30004 0.5
249 1 0.1 0.30004 0.5
251 1 0.125 0.30004 0.5
253 1 0.15 0.30004 0.5
255 1 0.175 0.30004 0.5
267 1 0.325 0.30004 0.5
269 1 0.35 0.30004 0.5
271 1 0.375 0.30004 0.5
273 1 0.4 0.30004 0.5
275 1 0.425 0.30004 0.5
277 1 0.45 0.30004 0.5
279 1 0.475 0.30004 0.5
281 1 0.5 0.30004 0.5
283 1 0.525 0.30004 0.5
285 1 0.55 0.30004 0.5
287 1 0.575 0.30004 0.5
289 1 0.6 0.30004 0.5
291 1 0.625 0.30004 0.5
293 1 0.65 0.30004 0.5
295 1 0.675 0.30004 0.5
297 1 0.7 0.30004 0.5
299 1 0.725 0.30004 0.5
301 1 0.75 0.30004 0.5
303 1 0.775 0.30004 0.5
305 1 0.8 0.30004 0.5
307 1 0.825 0.30004 0.5
309 1 0.85 0.30004 0.5
311 1 0.875 0.30004 0.5
313 1 0.9 0.30004 0.5
315 1 0.925 0.30004 0.5
317 1 0.95 0.30004 0.5
319 1 0.975 0.30004 0.5
242 1 0.0125 0.35003 0.5
244 1 0.0375 0.35003 0.5
246 1 0.0625 0.35003 0.5
248 1 0.0875 0.35003 0.5
250 1 0.1125 0.35003 0.5
252 1 0.1375 0.35003 0.5
254 1 0.1625 0.35003 0.5
268 1 0.3375 0.35003 0.5
270 1 0.3625 0.35003 0.5
272 1 0.3875 0.35003 0.5
274 1 0.4125 0.35003 0.5
276 1 0.4375 0.35003 0.5
278 1 0.4625 0.35003 0.5
280 1 0.4875 0.35003 0.5
282 1 0.5125 0.35003 0.5
284 1 0.5375 0.35003 0.5
286 1 0.5625 0.35003 0.5
288 1 0.5875 0.35003 0.5
290 1 0.6125 0.35003 0.5
292 1 0.6375 0.35003 0.5
294 1 0.6625 0.35003 0.5
296 1 0.6875 0.35003 0.5
298 1 0.7125 0.35003 0.5
300 1 0.7375 0.35003 0.5
302 1 0.7625 0.35003 0.5
304 1 0.7875 0.35003 0.5
306 1 0.8125 0.35003 0.5
308 1 0.8375 0.35003 0.5
310 1 0.8625 0.35003 0.5
312 1 0.8875 0.35003 0.5
314 1 0.9125 0.35003 0.5
316 1 0.9375 0.35003 0.5
318 1 0.9625 0.35003 0.5
320 1 0.9875 0.35003 0.5
321 1 0 0.40002 0.5
323 1 0.025 0.40002 0.5
325 1 0.05 0.40002 0.5
327 1 0.075 0.40002 0.5
329 1 0.1 0.40002 0.5
331 1 0.125 0.40002 0.5
333 1 0.15 0.40002 0.5
347 1 0.325 0.40002 0.5
349 1 0.35 0.40002 0.5
351 1 0.375 0.40002 0.5
353 1 0.4 0.40002 0.5
355 1 0.425 0.40002 0.5
357 1 0.45 0.40002 0.5
359 1 0.475 0.40002 0.5
361 1 0.5 0.40002 0.5
363 1 0.525 0.40002 0.5
365 1 0.55 0.40002 0.5
367 1 0.575 0.40002 0.5
369 1 0.6 0.40002 0.5
371 1 0.625 0.40002 0.5
373 1 0.65 0.40002 0.5
375 1 0.675 0.40002 0.5
377 1 0.7 0.40002 0.5
379 1 0.725 0.40002 0.5
381 1 0.75 0.40002 0.5
383 1 0.775 0.40002 0.5
385 1 0.8 0.40002 0.5
387 1 0.825 0.40002 0.5
389 1 0.85 0.40002 0.5
391 1 0.875 0.40002 0.5
393 1 0.9 0.40002 0.5
395 1 0.925 0.40002 0.5
397 1 0.95 0.40002 0.5
399 1 0.975 0.40002 0.5
322 1 0.0125 0.45001 0.5
324 1 0.0375 0.45001 0.5
326 1 0.0625 0.45001 0.5
328 1 0.0875 0.45001 0.5
330 1 0.1125 0.45001 0.5
332 1 0.1375 0.45001 0.5
334 1 0.1625 0.45001 0.5
348 1 0.3375 0.45001 0.5
350 1 0.3625 0.45001 0.5
352 1 0.3875 0.45001 0.5
354 1 0.4125 0.45001 0.5
356 1 0.4375 0.45001 0.5
358 1 0.4625 0.45001 0.5
360 1 0.4875 0.45001 0.5
362 1 0.5125 0.45001 0.5
364 1 0.5375 0.45001 0.5
366 1 0.5625 0.45001 0.5
368 1 0.5875 0.45001 0.5
370 1 0.6125 0.45001 0.5
372 1 0.6375 0.45001 0.5
374 1 0.6625 0.45001 0.5
376 1 0.6875 0.45001 0.5
378 1 0.7125 0.45001 0.5
380 1 0.7375 0.45001 0.5
382 1 0.7625 0.45001 0.5
384 1 0.7875 0.45001 0.5
386 1 0.8125 0.45001 0.5
388 1 0.8375 0.45001 0.5
390 1 0.8625 0.45001 0.5
392 1 0.8875 0.45001 0.5
394 1 0.9125 0.45001 0.5
396 1 0.9375 0.45001 0.5
398 1 0.9625 0.45001 0.5
400 1 0.9875 0.45001 0.5
401 1 0 0.5 0.5
403 1 0.025 0.5 0.5
405 1 0.05 0.5 0.5
407 1 0.075 0.5 0.5
409 1 0.1 0.5 0.5
411 1 0.125 0.5 0.5
413 1 0.15 0.5 0.5
415 1 0.175 0.5 0.5
427 1 0.325 0.5 0.5
429 1 0.35 0.5 0.5
431 1 0.375 0.5 0.5
433 1 0.4 0.5 0.5
435 1 0.425 0.5 0.5
437 1 0.45 0.5 0.5
439 1 0.475 0.5 0.5
441 1 0.5 0.5 0.5
443 1 0.525 0.5 0.5
445 1 0.55 0.5 0.5
447 1 0.575 0.5 0.5
449 1 0.6 0.5 0.5
451 1 0.625 0.5 0.5
453 1 0.65 0.5 0.5
455 1 0.675 0.5 0.5
457 1 0.7 0.5 0.5
459 1 0.725 0.5 0.5
461 1 0.75 0.5 0.5
463 1 0.775 0.5 0.5
465 1 0.8 0.5 0.5
467 1 0.825 0.5 0.5
469 1 0.85 0.5 0.5
471 1 0.875 0.5 0.5
473 1 0.9 0.5 0.5
475 1 0.925 0.5 0.5
477 1 0.95 0.5 0.5
479 1 0.975 0.5 0.5
402 1 0.0125 0.54999 0.5
404 1 0.0375 0.54999 0.5
406 1 0.0625 0.54999 0.5
408 1 0.0875 0.54999 0.5
410 1 0.1125 0.54999 0.5
412 1 0.1375 0.54999 0.5
414 1 0.1625 0.54999 0.5
416 1 0.1875 0.54999 0.5
426 1 0.3125 0.54999 0.5
428 1 0.3375 0.54999 0.5
430 1 0.3625 0.54999 0.5
432 1 0.3875 0.54999 0.5
434 1 0.4125 0.54999 0.5
436 1 0.4375 0.54999 0.5
446 1 0.5625 0.54999 0.5
448 1 0.5875 0.54999 0.5
450 1 0.6125 0.54999 0.5
452 1 0.6375 0.54999 0.5
454 1 0.6625 0.54999 0.5
456 1 0.6875 0.54999 0.5
458 1 0.7125 0.54999 0.5
460 1 0.7375 0.54999 0.5
462 1 0.7625 0.54999 0.5
464 1 0.7875 0.54999 0.5
466 1 0.8125 0.54999 0.5
468 1 0.8375 0.54999 0.5
470 1 0.8625 0.54999 0.5
472 1 0.8875 0.54999 0.5
474 1 0.9125 0.54999 0.5
476 1 0.9375 0.54999 0.5
478 1 0.9625 0.54999 0.5
480 1 0.9875 0.54999 0.5
481 1 0 0.59998 0.5
483 1 0.025 0.59998 0.5
485 1 0.05 0.59998 0.5
487 1 0.075 0.59998 0.5
489 1 0.1 0.59998 0.5
491 1 0.125 0.59998 0.5
493 1 0.15 0.59998 0.5
495 1 0.175 0.59998 0.5
497 1 0.2 0.59998 0.5
499 1 0.225 0.59998 0.5
501 1 0.25 0.59998 0.5
503 1 0.275 0.59998 0.5
505 1 0.3 0.59998 0.5
507 1 0.325 0.59998 0.5
509 1 0.35 0.59998 0.5
511 1 0.375 0.59998 0.5
513 1 0.4 0.59998 0.5
515 1 0.425 0.59998 0.5
527 1 0.575 0.59998 0.5
529 1 0.6 0.59998 0.5
531 1 0.625 0.59998 0.5
533 1 0.65 0.59998 0.5
535 1 0.675 0.59998 0.5
537 1 0.7 0.59998 0.5
539 1 0.725 0.59998 0.5
541 1 0.75 0.59998 0.5
543 1 0.775 0.59998 0.5
545 1 0.8 0.59998 0.5
547 1 0.825 0.59998 0.5
549 1 0.85 0.59998 0.5
551 1 0.875 0.59998 0.5
553 1 0.9 0.59998 0.5
555 1 0.925 0.59998 0.5
557 1 0.95 0.59998 0.5
559 1 0.975 0.59998 0.5
482 1 0.0125 0.64997 0.5
484 1 0.0375 0.64997 0.5
486 1 0.0625 0.64997 0.5
488 1 0.0875 0.64997 0.5
490 1 0.1125 0.64997 0.5
492 1 0.1375 0.64997 0.5
494 1 0.1625 0.64997 0.5
496 1 0.1875 0.64997 0.5
498 1 0.2125 0.64997 0.5
500 1 0.2375 0.64997 0.5
502 1 0.2625 0.64997 0.5
504 1 0.2875 0.64997 0.5
506 1 0.3125 0.64997 0.5
508 1 0.3375 0.64997 0.5
510 1 0.3625 0.64997 0.5
512 1 0.3875 0.64997 0.5
514 1 0.4125 0.64997 0.5
528 1 0.5875 0.64997 0.5
530 1 0.6125 0.64997 0.5
532 1 0.6375 0.64997 0.5
534 1 0.6625 0.64997 0.5
536 1 0.6875 0.64997 0.5
538 1 0.7125 0.64997 0.5
540 1 0.7375 0.64997 0.5
542 1 0.7625 0.64997 0.5
544 1 0.7875 0.64997 0.5
546 1 0.8125 0.64997 0.5
548 1 0.8375 0.64997 0.5
550 1 0.8625 0.64997 0.5
552 1 0.8875 0.64997 0.5
554 1 0.9125 0.64997 0.5
556 1 0.9375 0.64997 0.5
558 1 0.9625 0.64997 0.5
560 1 0.9875 0.64997 0.5
561 1 0 0.69996 0.5
563 1 0.025 0.69996 0.5
565 1 0.05 0.69996 0.5
567 1 0.075 0.69996 0.5
569 1 0.1 0.69996 0.5
571 1 0.125 0.69996 0.5
573 1 0.15 0.69996 0.5
575 1 0.175 0.69996 0.5
577 1 0.2 0.69996 0.5
579 1 0.225 0.69996 0.5
581 1 0.25 0.69996 0.5
583 1 0.275 0.69996 0.5
585 1 0.3 0.69996 0.5
587 1 0.325 0.69996 0.5
589 1 0.35 0.69996 0.5
591 1 0.375 0.69996 0.5
593 1 0.4 0.69996 0.5
609 1 0.6 0.69996 0.5
611 1 0.625 0.69996 0.5
613 1 0.65 0.69996 0.5
615 1 0.675 0.69996 0.5
617 1 0.7 0.69996 0.5
619 1 0.725 0.69996 0.5
621 1 0.75 0.69996 0.5
623 1 0.775 0.69996 0.5
625 1 0.8 0.69996 0.5
627 1 0.825 0.69996 0.5
629 1 0.85 0.69996 0.5
631 1 0.875 0.69996 0.5
633 1 0.9 0.69996 0.5
635 1 0.925 0.69996 0.5
637 1 0.95 0.69996 0.5
639 1 0.975 0.69996 0.5
562 1 0.0125 0.74995 0.5
564 1 0.0375 0.74995 0.5
566 1 0.0625 0.74995 0.5
568 1 0.0875 0.74995 0.5
570 1 0.1125 0.74995 0.5
572 1 0.1375 0.74995 0.5
574 1 0.1625 0.74995 0.5
576 1 0.1875 0.74995 0.5
578 1 0.2125 0.74995 0.5
580 1 0.2375 0.74995 0.5
582 1 0.2625 0.74995 0.5
584 1 0.2875 0.74995 0.5
586 1 0.3125 0.74995 0.5
588 1 0.3375 0.74995 0.5
590 1 0.3625 0.74995 0.5
592 1 0.3875 0.74995 0.5
594 1 0.4125 0.74995 0.5
608 1 0.5875 0.74995 0.5
610 1 0.6125 0.74995 0.5
612 1 0.6375 0.74995 0.5
614 1 0.6625 0.74995 0.5
616 1 0.6875 0.74995 0.5
618 1 0.7125 0.74995 0.5
620 1 0.7375 0.74995 0.5
622 1 0.7625 0.74995 0.5
624 1 0.7875 0.74995 0.5
626 1 0.8125 0.74995 0.5
628 1 0.8375 0.74995 0.5
630 1 0.8625 0.74995 0.5
632 1 0.8875 0.74995 0.5
634 1 0.9125 0.74995 0.5
636 1 0.9375 0.74995 0.5
638 1 0.9625 0.74995 0.5
640 1 0.9875 0.74995 0.5
641 1 0 0.79994 0.5
643 1 0.025 0.79994 0.5
645 1 0.05 0.79994 0.5
647 1 0.075 0.79994 0.5
649 1 0.1 0.79994 0.5
651 1 0.125 0.79994 0.5
653 1 0.15 0.79994 0.5
655 1 0.175 0.79994 0.5
657 1 0.2 0.79994 0.5
659 1 0.225 0.79994 0.5
661 1 0.25 0.79994 0.5
663 1 0.275 0.79994 0.5
665 1 0.3 0.79994 0.5
667 1 0.325 0.79994 0.5
669 1 0.35 0.79994 0.5
671 1 0.375 0.79994 0.5
673 1 0.4 0.79994 0.5
675 1 0.425 0.79994 0.5
687 1 0.575 0.79994 0.5
689 1 0.6 0.79994 0.5
691 1 0.625 0.79994 0.5
693 1 0.65 0.79994 0.5
695 1 0.675 0.79994 0.5
697 1 0.7 0.79994 0.5
699 1 0.725 0.79994 0.5
701 1 0.75 0.79994 0.5
703 1 0.775 0.79994 0.5
705 1 0.8 0.79994 0.5
707 1 0.825 0.79994 0.5
709 1 0.85 0.79994 0.5
711 1 0.875 0.79994 0.5
713 1 0.9 0.79994 0.5
715 1 0.925 0.79994 0.5
717 1 0.95 0.79994 0.5
719 1 0.975 0.79994 0.5
642 1 0.0125 0.84993 0.5
644 1 0.0375 0.84993 0.5
646 1 0.0625 0.84993 0.5
648 1 0.0875 0.84993 0.5
650 1 0.1125 0.84993 0.5
652 1 0.1375 0.84993 0.5
654 1 0.1625 0.84993 0.5
656 1 0.1875 0.84993 0.5
658 1 0.2125 0.84993 0.5
660 1 0.2375 0.84993 0.5
662 1 0.2625 0.84993 0.5
664 1 0.2875 0.84993 0.5
666 1 0.3125 0.84993 0.5
668 1 0.3375 0.84993 0.5
670 1 0.3625 0.84993 0.5
672 1 0.3875 0.84993 0.5
674 1 0.4125 0.84993 0.5
676 1 0.4375 0.84993 0.5
678 1 0.4625 0.84993 0.5
684 1 0.5375 0.84993 0.5
686 1 0.5625 0.84993 0.5
688 1 0.5875 0.84993 0.5
690 1 0.6125 0.84993 0.5
692 1 0.6375 0.84993 0.5
694 1 0.6625 0.84993 0.5
696 1 0.6875 0.84993 0.5
698 1 0.7125 0.84993 0.5
700 1 0.7375 0.84993 0.5
702 1 0.7625 0.84993 0.5
704 1 0.7875 0.84993 0.5
706 1 0.8125 0.84993 0.5
708 1 0.8375 0.84993 0.5
710 1 0.8625 0.84993 0.5
712 1 0.8875 0.84993 0.5
714 1 0.9125 0.84993 0.5
716 1 0.9375 0.84993 0.5
718 1 0.9625 0.84993 0.5
720 1 0.9875 0.84993 0.5
721 3 0 0.89992 0.5
723 3 0.025 0.89992 0.5
725 3 0.05 0.89992 0.5
727 3 0.075 0.89992 0.5
729 3 0.1 0.89992 0.5
731 3 0.125 0.89992 0.5
733 3 0.15 0.89992 0.5
735 3 0.175 0.89992 0.5
737 3 0.2 0.89992 0.5
739 3 0.225 0.89992 0.5
741 3 0.25 0.89992 0.5
743 3 0.275 0.89992 0.5
745 3 0.3 0.89992 0.5
747 3 0.325 0.89992 0.5
749 3 0.35 0.89992 0.5
751 3 0.375 0.89992 0.5
753 3 0.4 0.89992 0.5
755 3 0.425 0.89992 0.5
757 3 0.45 0.89992 0.5
759 3 0.475 0.89992 0.5
761 3 0.5 0.89992 0.5
763 3 0.525 0.89992 0.5
765 3 0.55 0.89992 0.5
767 3 0.575 0.89992 0.5
769 3 0.6 0.89992 0.5
683 3 0.625 0.89992 0.5
681 3 0.65 0.89992 0.5
679 3 0.675 0.89992 0.5
607 3 0.7 0.89992 0.5
605 3 0.725 0.89992 0.5
603 3 0.75 0.89992 0.5
601 3 0.775 0.89992 0.5
599 3 0.8 0.89992 0.5
597 3 0.825 0.89992 0.5
595 3 0.85 0.89992 0.5
525 3 0.875 0.89992 0.5
523 3 0.9 0.89992 0.5
521 3 0.925 0.89992 0.5
519 3 0.95 0.89992 0.5
517 3 0.975 0.89992 0.5
722 3 0.0125 0.94991 0.5
724 3 0.0375 0.94991 0.5
726 3 0.0625 0.94991 0.5
728 3 0.0875 0.94991 0.5
730 3 0.1125 0.94991 0.5
732 3 0.1375 0.94991 0.5
734 3 0.1625 0.94991 0.5
736 3 0.1875 0.94991 0.5
738 3 0.2125 0.94991 0.5
740 3 0.2375 0.94991 0.5
742 3 0.2625 0.94991 0.5
744 3 0.2875 0.94991 0.5
746 3 0.3125 0.94991 0.5
748 3 0.3375 0.94991 0.5
750 3 0.3625 0.94991 0.5
752 3 0.3875 0.94991 0.5
754 3 0.4125 0.94991 0.5
756 3 0.4375 0.94991 0.5
758 3 0.4625 0.94991 0.5
760 3 0.4875 0.94991 0.5
762 3 0.5125 0.94991 0.5
764 3 0.5375 0.94991 0.5
766 3 0.5625 0.94991 0.5
768 3 0.5875 0.94991 0.5
685 3 0.6125 0.94991 0.5
682 3 0.6375 0.94991 0.5
680 3 0.6625 0.94991 0.5
677 3 0.6875 0.94991 0.5
606 3 0.7125 0.94991 0.5
604 3 0.7375 0.94991 0.5
602 3 0.7625 0.94991 0.5
600 3 0.7875 0.94991 0.5
598 3 0.8125 0.94991 0.5
596 3 0.8375 0.94991 0.5
526 3 0.8625 0.94991 0.5
524 3 0.8875 0.94991 0.5
522 3 0.9125 0.94991 0.5
520 3 0.9375 0.94991 0.5
518 3 0.9625 0.94991 0.5
516 3 0.9875 0.94991 0.5
444 3 0 0.9999 0.5
442 3 0.025 0.9999 0.5
440 3 0.05 0.9999 0.5
438 3 0.075 0.9999 0.5
425 3 0.1 0.9999 0.5
424 3 0.125 0.9999 0.5
423 3 0.15 0.9999 0.5
422 3 0.175 0.9999 0.5
421 3 0.2 0.9999 0.5
420 3 0.225 0.9999 0.5
419 3 0.25 0.9999 0.5
418 3 0.275 0.9999 0.5
417 3 0.3 0.9999 0.5
346 3 0.325 0.9999 0.5
345 3 0.35 0.9999 0.5
344 3 0.375 0.9999 0.5
343 3 0.4 0.9999 0.5
342 3 0.425 0.9999 0.5
341 3 0.45 0.9999 0.5
340 3 0.475 0.9999 0.5
339 3 0.5 0.9999 0.5
338 3 0.525 0.9999 0.5
337 3 0.55 0.9999 0.5
336 3 0.575 0.9999 0.5
335 3 0.6 0.9999 0.5
266 3 0.625 0.9999 0.5
265 3 0.65 0.9999 0.5
264 3 0.675 0.9999 0.5
263 3 0.7 0.9999 0.5
262 3 0.725 0.9999 0.5
261 3 0.75 0.9999 0.5
260 3 0.775 0.9999 0.5
259 3 0.8 0.9999 0.5
258 3 0.825 0.9999 0.5
257 3 0.85 0.9999 0.5
256 3 0.875 0.9999 0.5
184 3 0.9 0.9999 0.5
182 3 0.925 0.9999 0.5
180 3 0.95 0.9999 0.5
178 3 0.975 0.9999 0.5
ITEM: TIMESTEP
100
ITEM: NUMBER OF ATOMS
769
ITEM: BOX BOUNDS pp ss pp
0.0000000000000000e+00 5.1374269009840255e+01
-2.2245711031688635e-03 2.2302545522935077e+01
-3.2108918131150160e-01 3.2108918131150160e-01
ITEM: ATOMS id type xs ys zs
1 2 0 9.97352e-05 0.5
3 2 0.025 9.97352e-05 0.5
5 2 0.05 9.97352e-05 0.5
7 2 0.075 9.97352e-05 0.5
9 2 0.1 9.97352e-05 0.5
11 2 0.125 9.97352e-05 0.5
13 2 0.15 9.97352e-05 0.5
15 2 0.175 9.97352e-05 0.5
17 2 0.2 9.97352e-05 0.5
19 2 0.225 9.97352e-05 0.5
21 2 0.25 9.97352e-05 0.5
23 2 0.275 9.97352e-05 0.5
25 2 0.3 9.97352e-05 0.5
27 2 0.325 9.97352e-05 0.5
29 2 0.35 9.97352e-05 0.5
31 2 0.375 9.97352e-05 0.5
33 2 0.4 9.97352e-05 0.5
35 2 0.425 9.97352e-05 0.5
37 2 0.45 9.97352e-05 0.5
39 2 0.475 9.97352e-05 0.5
41 2 0.5 9.97352e-05 0.5
43 2 0.525 9.97352e-05 0.5
45 2 0.55 9.97352e-05 0.5
47 2 0.575 9.97352e-05 0.5
49 2 0.6 9.97352e-05 0.5
51 2 0.625 9.97352e-05 0.5
53 2 0.65 9.97352e-05 0.5
55 2 0.675 9.97352e-05 0.5
57 2 0.7 9.97352e-05 0.5
59 2 0.725 9.97352e-05 0.5
61 2 0.75 9.97352e-05 0.5
63 2 0.775 9.97352e-05 0.5
65 2 0.8 9.97352e-05 0.5
67 2 0.825 9.97352e-05 0.5
69 2 0.85 9.97352e-05 0.5
71 2 0.875 9.97352e-05 0.5
73 2 0.9 9.97352e-05 0.5
75 2 0.925 9.97352e-05 0.5
77 2 0.95 9.97352e-05 0.5
79 2 0.975 9.97352e-05 0.5
2 2 0.0125 0.0499673 0.5
4 2 0.0375 0.0499673 0.5
6 2 0.0625 0.0499673 0.5
8 2 0.0875 0.0499673 0.5
10 2 0.1125 0.0499673 0.5
12 2 0.1375 0.0499673 0.5
14 2 0.1625 0.0499673 0.5
16 2 0.1875 0.0499673 0.5
18 2 0.2125 0.0499673 0.5
20 2 0.2375 0.0499673 0.5
22 2 0.2625 0.0499673 0.5
24 2 0.2875 0.0499673 0.5
26 2 0.3125 0.0499673 0.5
28 2 0.3375 0.0499673 0.5
30 2 0.3625 0.0499673 0.5
32 2 0.3875 0.0499673 0.5
34 2 0.4125 0.0499673 0.5
36 2 0.4375 0.0499673 0.5
38 2 0.4625 0.0499673 0.5
40 2 0.4875 0.0499673 0.5
42 2 0.5125 0.0499673 0.5
44 2 0.5375 0.0499673 0.5
46 2 0.5625 0.0499673 0.5
48 2 0.5875 0.0499673 0.5
50 2 0.6125 0.0499673 0.5
52 2 0.6375 0.0499673 0.5
54 2 0.6625 0.0499673 0.5
56 2 0.6875 0.0499673 0.5
58 2 0.7125 0.0499673 0.5
60 2 0.7375 0.0499673 0.5
62 2 0.7625 0.0499673 0.5
64 2 0.7875 0.0499673 0.5
66 2 0.8125 0.0499673 0.5
68 2 0.8375 0.0499673 0.5
70 2 0.8625 0.0499673 0.5
72 2 0.8875 0.0499673 0.5
74 2 0.9125 0.0499673 0.5
76 2 0.9375 0.0499673 0.5
78 2 0.9625 0.0499673 0.5
80 2 0.9875 0.0499673 0.5
81 2 0 0.099835 0.5
83 2 0.025 0.099835 0.5
85 2 0.05 0.099835 0.5
87 2 0.075 0.099835 0.5
89 2 0.1 0.099835 0.5
91 2 0.125 0.099835 0.5
93 2 0.15 0.099835 0.5
95 2 0.175 0.099835 0.5
97 2 0.2 0.099835 0.5
99 2 0.225 0.099835 0.5
101 2 0.25 0.099835 0.5
103 2 0.275 0.099835 0.5
105 2 0.3 0.099835 0.5
107 2 0.325 0.099835 0.5
109 2 0.35 0.099835 0.5
111 2 0.375 0.099835 0.5
113 2 0.4 0.099835 0.5
115 2 0.425 0.099835 0.5
117 2 0.45 0.099835 0.5
119 2 0.475 0.099835 0.5
121 2 0.5 0.099835 0.5
123 2 0.525 0.099835 0.5
125 2 0.55 0.099835 0.5
127 2 0.575 0.099835 0.5
129 2 0.6 0.099835 0.5
131 2 0.625 0.099835 0.5
133 2 0.65 0.099835 0.5
135 2 0.675 0.099835 0.5
137 2 0.7 0.099835 0.5
139 2 0.725 0.099835 0.5
141 2 0.75 0.099835 0.5
143 2 0.775 0.099835 0.5
145 2 0.8 0.099835 0.5
147 2 0.825 0.099835 0.5
149 2 0.85 0.099835 0.5
151 2 0.875 0.099835 0.5
153 2 0.9 0.099835 0.5
155 2 0.925 0.099835 0.5
157 2 0.95 0.099835 0.5
159 2 0.975 0.099835 0.5
82 1 0.0167565 0.141569 0.5
84 1 0.0411992 0.142178 0.5
86 1 0.0630202 0.162103 0.5
88 1 0.0815427 0.144297 0.5
90 1 0.110805 0.167153 0.5
92 1 0.138064 0.139637 0.5
94 1 0.16304 0.136011 0.5
96 1 0.182574 0.144109 0.5
98 1 0.21033 0.135173 0.5
100 1 0.236721 0.132947 0.5
102 1 0.259951 0.136153 0.5
104 1 0.286275 0.134319 0.5
106 1 0.314562 0.142554 0.5
108 1 0.336675 0.137741 0.5
110 1 0.360035 0.164109 0.5
112 1 0.394426 0.161485 0.5
114 1 0.41287 0.145341 0.5
116 1 0.438128 0.160945 0.5
118 1 0.45923 0.147945 0.5
120 1 0.484231 0.141587 0.5
122 1 0.515715 0.142754 0.5
124 1 0.537246 0.140593 0.5
126 1 0.566568 0.15938 0.5
128 1 0.590278 0.154646 0.5
130 1 0.613772 0.14156 0.5
132 1 0.637132 0.166207 0.5
134 1 0.663743 0.146066 0.5
136 1 0.696931 0.155834 0.5
138 1 0.722225 0.146546 0.5
140 1 0.744247 0.145933 0.5
142 1 0.764884 0.167998 0.5
144 1 0.783699 0.162595 0.5
146 1 0.806334 0.143919 0.5
148 1 0.844614 0.144384 0.5
150 1 0.867327 0.14398 0.5
152 1 0.887249 0.162486 0.5
154 1 0.909298 0.140882 0.5
156 1 0.935994 0.139368 0.5
158 1 0.957605 0.146336 0.5
160 1 0.995274 0.148016 0.5
161 1 0.00136466 0.207406 0.5
163 1 0.0227718 0.211177 0.5
165 1 0.0432021 0.209209 0.5
167 1 0.0721068 0.200863 0.5
169 1 0.0901915 0.187708 0.5
171 1 0.134012 0.209612 0.5
173 1 0.153912 0.188054 0.5
175 1 0.176487 0.187557 0.5
177 1 0.196718 0.183613 0.5
179 1 0.22127 0.18445 0.5
181 1 0.241728 0.175795 0.5
183 1 0.273589 0.173822 0.5
185 1 0.293873 0.188905 0.5
187 1 0.322411 0.192167 0.5
189 1 0.357642 0.206896 0.5
191 1 0.374949 0.198587 0.5
193 1 0.402224 0.210937 0.5
195 1 0.41951 0.190625 0.5
197 1 0.455941 0.214118 0.5
199 1 0.475881 0.19119 0.5
201 1 0.500728 0.210817 0.5
203 1 0.519855 0.196453 0.5
205 1 0.545049 0.189999 0.5
207 1 0.578207 0.198193 0.5
209 1 0.605015 0.190825 0.5
211 1 0.624041 0.208997 0.5
213 1 0.655026 0.197299 0.5
215 1 0.678446 0.223086 0.5
217 1 0.69654 0.199862 0.5
219 1 0.728163 0.206374 0.5
221 1 0.747679 0.193457 0.5
223 1 0.778411 0.215952 0.5
225 1 0.802606 0.215744 0.5
227 1 0.836092 0.183836 0.5
229 1 0.856878 0.183807 0.5
231 1 0.880833 0.206479 0.5
233 1 0.901829 0.205183 0.5
235 1 0.926881 0.193117 0.5
237 1 0.949367 0.200141 0.5
239 1 0.985061 0.184611 0.5
162 1 0.0134115 0.256281 0.5
164 1 0.0346685 0.257602 0.5
166 1 0.0551743 0.251861 0.5
168 1 0.0848215 0.240272 0.5
170 1 0.11779 0.24659 0.5
172 1 0.141781 0.250983 0.5
174 1 0.169586 0.241675 0.5
176 1 0.190787 0.227415 0.5
186 1 0.317997 0.243558 0.5
188 1 0.336643 0.22467 0.5
190 1 0.360064 0.252698 0.5
192 1 0.381661 0.245657 0.5
194 1 0.413051 0.248358 0.5
196 1 0.436453 0.252662 0.5
198 1 0.470436 0.24561 0.5
200 1 0.490298 0.254096 0.5
202 1 0.511249 0.259836 0.5
204 1 0.52943 0.245645 0.5
206 1 0.566054 0.256141 0.5
208 1 0.585845 0.252166 0.5
210 1 0.609446 0.249261 0.5
212 1 0.639151 0.239913 0.5
214 1 0.663365 0.25351 0.5
216 1 0.694116 0.248969 0.5
218 1 0.717121 0.262857 0.5
220 1 0.741759 0.241959 0.5
222 1 0.763806 0.246487 0.5
224 1 0.790839 0.258068 0.5
226 1 0.812138 0.256133 0.5
228 1 0.841829 0.25865 0.5
230 1 0.863212 0.24511 0.5
232 1 0.88647 0.257398 0.5
234 1 0.911114 0.248032 0.5
236 1 0.931065 0.249888 0.5
238 1 0.955114 0.245998 0.5
240 1 0.98596 0.259078 0.5
241 1 0.00100084 0.299315 0.5
243 1 0.0227457 0.308618 0.5
245 1 0.0475185 0.300601 0.5
247 1 0.0764438 0.295377 0.5
249 1 0.102248 0.288219 0.5
251 1 0.121333 0.290962 0.5
253 1 0.144147 0.29779 0.5
255 1 0.16396 0.283849 0.5
267 1 0.333038 0.283771 0.5
269 1 0.35242 0.29622 0.5
271 1 0.378156 0.288661 0.5
273 1 0.403612 0.316559 0.5
275 1 0.428293 0.303634 0.5
277 1 0.447904 0.29123 0.5
279 1 0.470597 0.308278 0.5
281 1 0.501603 0.30247 0.5
283 1 0.522519 0.299799 0.5
285 1 0.546616 0.284198 0.5
287 1 0.571405 0.300895 0.5
289 1 0.597715 0.302408 0.5
291 1 0.629858 0.288268 0.5
293 1 0.650252 0.29639 0.5
295 1 0.671238 0.306584 0.5
297 1 0.702148 0.296987 0.5
299 1 0.735135 0.288394 0.5
301 1 0.750926 0.321265 0.5
303 1 0.768657 0.291402 0.5
305 1 0.805356 0.31037 0.5
307 1 0.829099 0.293411 0.5
309 1 0.856071 0.297012 0.5
311 1 0.876118 0.297519 0.5
313 1 0.901981 0.285822 0.5
315 1 0.925157 0.29939 0.5
317 1 0.954041 0.307463 0.5
319 1 0.977171 0.316681 0.5
242 1 0.00981523 0.364946 0.5
244 1 0.0357512 0.341451 0.5
246 1 0.0680251 0.339388 0.5
248 1 0.0869031 0.34755 0.5
250 1 0.115609 0.350207 0.5
252 1 0.133928 0.34921 0.5
254 1 0.155205 0.34363 0.5
268 1 0.343481 0.33775 0.5
270 1 0.372405 0.33482 0.5
272 1 0.393143 0.352546 0.5
274 1 0.414256 0.360246 0.5
276 1 0.437727 0.359411 0.5
278 1 0.459914 0.349387 0.5
280 1 0.486049 0.337712 0.5
282 1 0.511377 0.3443 0.5
284 1 0.535763 0.351801 0.5
286 1 0.561656 0.357661 0.5
288 1 0.584783 0.338027 0.5
290 1 0.613034 0.33052 0.5
292 1 0.639317 0.343249 0.5
294 1 0.657681 0.344483 0.5
296 1 0.687356 0.333898 0.5
298 1 0.711155 0.339112 0.5
300 1 0.737902 0.356117 0.5
302 1 0.772639 0.337791 0.5
304 1 0.791534 0.354292 0.5
306 1 0.818868 0.345855 0.5
308 1 0.838931 0.347291 0.5
310 1 0.861199 0.340202 0.5
312 1 0.886973 0.340137 0.5
314 1 0.91153 0.330524 0.5
316 1 0.935517 0.347356 0.5
318 1 0.96516 0.355912 0.5
320 1 0.990173 0.352602 0.5
321 1 0.997542 0.403678 0.5
323 1 0.0226565 0.399908 0.5
325 1 0.0425663 0.390316 0.5
327 1 0.0742403 0.415036 0.5
329 1 0.106018 0.394727 0.5
331 1 0.127819 0.390988 0.5
333 1 0.153514 0.404147 0.5
347 1 0.352073 0.411998 0.5
349 1 0.35715 0.367293 0.5
351 1 0.379149 0.386981 0.5
353 1 0.414822 0.409829 0.5
355 1 0.434217 0.415092 0.5
357 1 0.453465 0.392967 0.5
359 1 0.472629 0.389411 0.5
361 1 0.498422 0.402324 0.5
363 1 0.528988 0.401344 0.5
365 1 0.550117 0.400598 0.5
367 1 0.584682 0.393232 0.5
369 1 0.609623 0.389956 0.5
371 1 0.631279 0.389965 0.5
373 1 0.652575 0.392634 0.5
375 1 0.675616 0.390487 0.5
377 1 0.696117 0.398815 0.5
379 1 0.730682 0.403042 0.5
381 1 0.759488 0.405098 0.5
383 1 0.779259 0.392557 0.5
385 1 0.80071 0.393226 0.5
387 1 0.822364 0.39869 0.5
389 1 0.853076 0.396771 0.5
391 1 0.88409 0.398771 0.5
393 1 0.906616 0.380026 0.5
395 1 0.925476 0.398558 0.5
397 1 0.955216 0.394812 0.5
399 1 0.976424 0.394514 0.5
322 1 0.011957 0.439202 0.5
324 1 0.0432561 0.440053 0.5
326 1 0.064906 0.456369 0.5
328 1 0.088012 0.452402 0.5
330 1 0.115276 0.45848 0.5
332 1 0.135859 0.438287 0.5
334 1 0.153964 0.464145 0.5
348 1 0.343258 0.457969 0.5
350 1 0.364976 0.442804 0.5
352 1 0.384234 0.452977 0.5
354 1 0.415783 0.45126 0.5
356 1 0.435979 0.459871 0.5
358 1 0.45779 0.448361 0.5
360 1 0.482985 0.433642 0.5
362 1 0.514505 0.43772 0.5
364 1 0.543622 0.43968 0.5
366 1 0.561716 0.472845 0.5
368 1 0.590231 0.457298 0.5
370 1 0.615786 0.45075 0.5
372 1 0.644127 0.447176 0.5
374 1 0.664398 0.436651 0.5
376 1 0.683982 0.440592 0.5
378 1 0.713565 0.451198 0.5
380 1 0.736954 0.44991 0.5
382 1 0.761851 0.456346 0.5
384 1 0.788119 0.435986 0.5
386 1 0.810481 0.445202 0.5
388 1 0.839981 0.442753 0.5
390 1 0.867744 0.432401 0.5
392 1 0.88602 0.461065 0.5
394 1 0.916994 0.447331 0.5
396 1 0.938331 0.437403 0.5
398 1 0.964819 0.434893 0.5
400 1 0.981612 0.467332 0.5
401 1 0.00379178 0.48253 0.5
403 1 0.0290288 0.494562 0.5
405 1 0.0487182 0.488593 0.5
407 1 0.0791332 0.501523 0.5
409 1 0.101934 0.500054 0.5
411 1 0.125186 0.505435 0.5
413 1 0.143699 0.520465 0.5
415 1 0.166744 0.496548 0.5
427 1 0.338322 0.520889 0.5
429 1 0.355435 0.500126 0.5
431 1 0.375217 0.506112 0.5
433 1 0.40109 0.48303 0.5
435 1 0.421875 0.494385 0.5
437 1 0.450129 0.493603 0.5
439 1 0.468142 0.493821 0.5
441 1 0.496289 0.473952 0.5
443 1 0.528196 0.472718 0.5
445 1 0.54769 0.509196 0.5
447 1 0.579246 0.493399 0.5
449 1 0.60666 0.496801 0.5
451 1 0.625557 0.511109 0.5
453 1 0.64707 0.499308 0.5
455 1 0.680422 0.505987 0.5
457 1 0.704592 0.4991 0.5
459 1 0.728235 0.493955 0.5
461 1 0.75178 0.49573 0.5
463 1 0.780197 0.500218 0.5
465 1 0.801574 0.487336 0.5
467 1 0.824859 0.478703 0.5
469 1 0.847637 0.508817 0.5
471 1 0.868643 0.500115 0.5
473 1 0.903424 0.504326 0.5
475 1 0.92486 0.503828 0.5
477 1 0.946157 0.48858 0.5
479 1 0.979566 0.513808 0.5
402 1 0.0142192 0.531391 0.5
404 1 0.0420875 0.559796 0.5
406 1 0.0636799 0.55425 0.5
408 1 0.0944511 0.556424 0.5
410 1 0.113182 0.547875 0.5
412 1 0.133332 0.563042 0.5