ITEM: TIMESTEP
0
ITEM: NUMBER OF ATOMS
769
ITEM: BOX BOUNDS pp ss pp
0.0000000000000000e+00 5.1374269009840255e+01
-2.2245711031688635e-03 2.2247935602791809e+01
-3.2108918131150160e-01 3.2108918131150160e-01
ITEM: ATOMS id type xs ys zs
1 2 0 9.998e-05 0.5
3 2 0.025 9.998e-05 0.5
5 2 0.05 9.998e-05 0.5
7 2 0.075 9.998e-05 0.5
9 2 0.1 9.998e-05 0.5
11 2 0.125 9.998e-05 0.5
13 2 0.15 9.998e-05 0.5
15 2 0.175 9.998e-05 0.5
17 2 0.2 9.998e-05 0.5
19 2 0.225 9.998e-05 0.5
21 2 0.25 9.998e-05 0.5
23 2 0.275 9.998e-05 0.5
25 2 0.3 9.998e-05 0.5
27 2 0.325 9.998e-05 0.5
29 2 0.35 9.998e-05 0.5
31 2 0.375 9.998e-05 0.5
33 2 0.4 9.998e-05 0.5
35 2 0.425 9.998e-05 0.5
37 2 0.45 9.998e-05 0.5
39 2 0.475 9.998e-05 0.5
41 2 0.5 9.998e-05 0.5
43 2 0.525 9.998e-05 0.5
45 2 0.55 9.998e-05 0.5
47 2 0.575 9.998e-05 0.5
49 2 0.6 9.998e-05 0.5
51 2 0.625 9.998e-05 0.5
53 2 0.65 9.998e-05 0.5
55 2 0.675 9.998e-05 0.5
57 2 0.7 9.998e-05 0.5
59 2 0.725 9.998e-05 0.5
61 2 0.75 9.998e-05 0.5
63 2 0.775 9.998e-05 0.5
65 2 0.8 9.998e-05 0.5
67 2 0.825 9.998e-05 0.5
69 2 0.85 9.998e-05 0.5
71 2 0.875 9.998e-05 0.5
73 2 0.9 9.998e-05 0.5
75 2 0.925 9.998e-05 0.5
77 2 0.95 9.998e-05 0.5
79 2 0.975 9.998e-05 0.5
2 2 0.0125 0.05009 0.5
4 2 0.0375 0.05009 0.5
6 2 0.0625 0.05009 0.5
8 2 0.0875 0.05009 0.5
10 2 0.1125 0.05009 0.5
12 2 0.1375 0.05009 0.5
14 2 0.1625 0.05009 0.5
16 2 0.1875 0.05009 0.5
18 2 0.2125 0.05009 0.5
20 2 0.2375 0.05009 0.5
22 2 0.2625 0.05009 0.5
24 2 0.2875 0.05009 0.5
26 2 0.3125 0.05009 0.5
28 2 0.3375 0.05009 0.5
30 2 0.3625 0.05009 0.5
32 2 0.3875 0.05009 0.5
34 2 0.4125 0.05009 0.5
36 2 0.4375 0.05009 0.5
38 2 0.4625 0.05009 0.5
40 2 0.4875 0.05009 0.5
42 2 0.5125 0.05009 0.5
44 2 0.5375 0.05009 0.5
46 2 0.5625 0.05009 0.5
48 2 0.5875 0.05009 0.5
50 2 0.6125 0.05009 0.5
52 2 0.6375 0.05009 0.5
54 2 0.6625 0.05009 0.5
56 2 0.6875 0.05009 0.5
58 2 0.7125 0.05009 0.5
60 2 0.7375 0.05009 0.5
62 2 0.7625 0.05009 0.5
64 2 0.7875 0.05009 0.5
66 2 0.8125 0.05009 0.5
68 2 0.8375 0.05009 0.5
70 2 0.8625 0.05009 0.5
72 2 0.8875 0.05009 0.5
74 2 0.9125 0.05009 0.5
76 2 0.9375 0.05009 0.5
78 2 0.9625 0.05009 0.5
80 2 0.9875 0.05009 0.5
81 2 0 0.10008 0.5
83 2 0.025 0.10008 0.5
85 2 0.05 0.10008 0.5
87 2 0.075 0.10008 0.5
89 2 0.1 0.10008 0.5
91 2 0.125 0.10008 0.5
93 2 0.15 0.10008 0.5
95 2 0.175 0.10008 0.5
97 2 0.2 0.10008 0.5
99 2 0.225 0.10008 0.5
101 2 0.25 0.10008 0.5
103 2 0.275 0.10008 0.5
105 2 0.3 0.10008 0.5
107 2 0.325 0.10008 0.5
109 2 0.35 0.10008 0.5
111 2 0.375 0.10008 0.5
113 2 0.4 0.10008 0.5
115 2 0.425 0.10008 0.5
117 2 0.45 0.10008 0.5
119 2 0.475 0.10008 0.5
121 2 0.5 0.10008 0.5
123 2 0.525 0.10008 0.5
125 2 0.55 0.10008 0.5
127 2 0.575 0.10008 0.5
129 2 0.6 0.10008 0.5
131 2 0.625 0.10008 0.5
133 2 0.65 0.10008 0.5
135 2 0.675 0.10008 0.5
137 2 0.7 0.10008 0.5
139 2 0.725 0.10008 0.5
141 2 0.75 0.10008 0.5
143 2 0.775 0.10008 0.5
145 2 0.8 0.10008 0.5
147 2 0.825 0.10008 0.5
149 2 0.85 0.10008 0.5
151 2 0.875 0.10008 0.5
153 2 0.9 0.10008 0.5
155 2 0.925 0.10008 0.5
157 2 0.95 0.10008 0.5
159 2 0.975 0.10008 0.5
82 1 0.0125 0.15007 0.5
84 1 0.0375 0.15007 0.5
86 1 0.0625 0.15007 0.5
88 1 0.0875 0.15007 0.5
90 1 0.1125 0.15007 0.5
92 1 0.1375 0.15007 0.5
94 1 0.1625 0.15007 0.5
96 1 0.1875 0.15007 0.5
98 1 0.2125 0.15007 0.5
100 1 0.2375 0.15007 0.5
102 1 0.2625 0.15007 0.5
104 1 0.2875 0.15007 0.5
106 1 0.3125 0.15007 0.5
108 1 0.3375 0.15007 0.5
110 1 0.3625 0.15007 0.5
112 1 0.3875 0.15007 0.5
114 1 0.4125 0.15007 0.5
116 1 0.4375 0.15007 0.5
118 1 0.4625 0.15007 0.5
120 1 0.4875 0.15007 0.5
122 1 0.5125 0.15007 0.5
124 1 0.5375 0.15007 0.5
126 1 0.5625 0.15007 0.5
128 1 0.5875 0.15007 0.5
130 1 0.6125 0.15007 0.5
132 1 0.6375 0.15007 0.5
134 1 0.6625 0.15007 0.5
136 1 0.6875 0.15007 0.5
138 1 0.7125 0.15007 0.5
140 1 0.7375 0.15007 0.5
142 1 0.7625 0.15007 0.5
144 1 0.7875 0.15007 0.5
146 1 0.8125 0.15007 0.5
148 1 0.8375 0.15007 0.5
150 1 0.8625 0.15007 0.5
152 1 0.8875 0.15007 0.5
154 1 0.9125 0.15007 0.5
156 1 0.9375 0.15007 0.5
158 1 0.9625 0.15007 0.5
160 1 0.9875 0.15007 0.5
161 1 0 0.20006 0.5
163 1 0.025 0.20006 0.5
165 1 0.05 0.20006 0.5
167 1 0.075 0.20006 0.5
169 1 0.1 0.20006 0.5
171 1 0.125 0.20006 0.5
173 1 0.15 0.20006 0.5
175 1 0.175 0.20006 0.5
177 1 0.2 0.20006 0.5
179 1 0.225 0.20006 0.5
181 1 0.25 0.20006 0.5
183 1 0.275 0.20006 0.5
185 1 0.3 0.20006 0.5
187 1 0.325 0.20006 0.5
189 1 0.35 0.20006 0.5
191 1 0.375 0.20006 0.5
193 1 0.4 0.20006 0.5
195 1 0.425 0.20006 0.5
197 1 0.45 0.20006 0.5
199 1 0.475 0.20006 0.5
201 1 0.5 0.20006 0.5
203 1 0.525 0.20006 0.5
205 1 0.55 0.20006 0.5
207 1 0.575 0.20006 0.5
209 1 0.6 0.20006 0.5
211 1 0.625 0.20006 0.5
213 1 0.65 0.20006 0.5
215 1 0.675 0.20006 0.5
217 1 0.7 0.20006 0.5
219 1 0.725 0.20006 0.5
221 1 0.75 0.20006 0.5
223 1 0.775 0.20006 0.5
225 1 0.8 0.20006 0.5
227 1 0.825 0.20006 0.5
229 1 0.85 0.20006 0.5
231 1 0.875 0.20006 0.5
233 1 0.9 0.20006 0.5
235 1 0.925 0.20006 0.5
237 1 0.95 0.20006 0.5
239 1 0.975 0.20006 0.5
162 1 0.0125 0.25005 0.5
164 1 0.0375 0.25005 0.5
166 1 0.0625 0.25005 0.5
168 1 0.0875 0.25005 0.5
170 1 0.1125 0.25005 0.5
172 1 0.1375 0.25005 0.5
174 1 0.1625 0.25005 0.5
176 1 0.1875 0.25005 0.5
186 1 0.3125 0.25005 0.5
188 1 0.3375 0.25005 0.5
190 1 0.3625 0.25005 0.5
192 1 0.3875 0.25005 0.5
194 1 0.4125 0.25005 0.5
196 1 0.4375 0.25005 0.5
198 1 0.4625 0.25005 0.5
200 1 0.4875 0.25005 0.5
202 1 0.5125 0.25005 0.5
204 1 0.5375 0.25005 0.5
206 1 0.5625 0.25005 0.5
208 1 0.5875 0.25005 0.5
210 1 0.6125 0.25005 0.5
212 1 0.6375 0.25005 0.5
214 1 0.6625 0.25005 0.5
216 1 0.6875 0.25005 0.5
218 1 0.7125 0.25005 0.5
220 1 0.7375 0.25005 0.5
222 1 0.7625 0.25005 0.5
224 1 0.7875 0.25005 0.5
226 1 0.8125 0.25005 0.5
228 1 0.8375 0.25005 0.5
230 1 0.8625 0.25005 0.5
232 1 0.8875 0.25005 0.5
234 1 0.9125 0.25005 0.5
236 1 0.9375 0.25005 0.5
238 1 0.9625 0.25005 0.5
240 1 0.9875 0.25005 0.5
241 1 0 0.30004 0.5
243 1 0.025 0.30004 0.5
245 1 0.05 0.30004 0.5
247 1 0.075 0.30004 0.5
249 1 0.1 0.30004 0.5
251 1 0.125 0.30004 0.5
253 1 0.15 0.30004 0.5
255 1 0.175 0.30004 0.5
267 1 0.325 0.30004 0.5
269 1 0.35 0.30004 0.5
271 1 0.375 0.30004 0.5
273 1 0.4 0.30004 0.5
275 1 0.425 0.30004 0.5
277 1 0.45 0.30004 0.5
279 1 0.475 0.30004 0.5
281 1 0.5 0.30004 0.5
283 1 0.525 0.30004 0.5
285 1 0.55 0.30004 0.5
287 1 0.575 0.30004 0.5
289 1 0.6 0.30004 0.5
291 1 0.625 0.30004 0.5
293 1 0.65 0.30004 0.5
295 1 0.675 0.30004 0.5
297 1 0.7 0.30004 0.5
299 1 0.725 0.30004 0.5
301 1 0.75 0.30004 0.5
303 1 0.775 0.30004 0.5
305 1 0.8 0.30004 0.5
307 1 0.825 0.30004 0.5
309 1 0.85 0.30004 0.5
311 1 0.875 0.30004 0.5
313 1 0.9 0.30004 0.5
315 1 0.925 0.30004 0.5
317 1 0.95 0.30004 0.5
319 1 0.975 0.30004 0.5
242 1 0.0125 0.35003 0.5
244 1 0.0375 0.35003 0.5
246 1 0.0625 0.35003 0.5
248 1 0.0875 0.35003 0.5
250 1 0.1125 0.35003 0.5
252 1 0.1375 0.35003 0.5
254 1 0.1625 0.35003 0.5
268 1 0.3375 0.35003 0.5
270 1 0.3625 0.35003 0.5
272 1 0.3875 0.35003 0.5
274 1 0.4125 0.35003 0.5
276 1 0.4375 0.35003 0.5
278 1 0.4625 0.35003 0.5
280 1 0.4875 0.35003 0.5
282 1 0.5125 0.35003 0.5
284 1 0.5375 0.35003 0.5
286 1 0.5625 0.35003 0.5
288 1 0.5875 0.35003 0.5
290 1 0.6125 0.35003 0.5
292 1 0.6375 0.35003 0.5
294 1 0.6625 0.35003 0.5
296 1 0.6875 0.35003 0.5
298 1 0.7125 0.35003 0.5
300 1 0.7375 0.35003 0.5
302 1 0.7625 0.35003 0.5
304 1 0.7875 0.35003 0.5
306 1 0.8125 0.35003 0.5
308 1 0.8375 0.35003 0.5
310 1 0.8625 0.35003 0.5
312 1 0.8875 0.35003 0.5
314 1 0.9125 0.35003 0.5
316 1 0.9375 0.35003 0.5
318 1 0.9625 0.35003 0.5
320 1 0.9875 0.35003 0.5
321 1 0 0.40002 0.5
323 1 0.025 0.40002 0.5
325 1 0.05 0.40002 0.5
327 1 0.075 0.40002 0.5
329 1 0.1 0.40002 0.5
331 1 0.125 0.40002 0.5
333 1 0.15 0.40002 0.5
347 1 0.325 0.40002 0.5
349 1 0.35 0.40002 0.5
351 1 0.375 0.40002 0.5
353 1 0.4 0.40002 0.5
355 1 0.425 0.40002 0.5
357 1 0.45 0.40002 0.5
359 1 0.475 0.40002 0.5
361 1 0.5 0.40002 0.5
363 1 0.525 0.40002 0.5
365 1 0.55 0.40002 0.5
367 1 0.575 0.40002 0.5
369 1 0.6 0.40002 0.5
371 1 0.625 0.40002 0.5
373 1 0.65 0.40002 0.5
375 1 0.675 0.40002 0.5
377 1 0.7 0.40002 0.5
379 1 0.725 0.40002 0.5
381 1 0.75 0.40002 0.5
383 1 0.775 0.40002 0.5
385 1 0.8 0.40002 0.5
387 1 0.825 0.40002 0.5
389 1 0.85 0.40002 0.5
391 1 0.875 0.40002 0.5
393 1 0.9 0.40002 0.5
395 1 0.925 0.40002 0.5
397 1 0.95 0.40002 0.5
399 1 0.975 0.40002 0.5
322 1 0.0125 0.45001 0.5
324 1 0.0375 0.45001 0.5
326 1 0.0625 0.45001 0.5
328 1 0.0875 0.45001 0.5
330 1 0.1125 0.45001 0.5
332 1 0.1375 0.45001 0.5
334 1 0.1625 0.45001 0.5
348 1 0.3375 0.45001 0.5
350 1 0.3625 0.45001 0.5
352 1 0.3875 0.45001 0.5
354 1 0.4125 0.45001 0.5
356 1 0.4375 0.45001 0.5
358 1 0.4625 0.45001 0.5
360 1 0.4875 0.45001 0.5
362 1 0.5125 0.45001 0.5
364 1 0.5375 0.45001 0.5
366 1 0.5625 0.45001 0.5
368 1 0.5875 0.45001 0.5
370 1 0.6125 0.45001 0.5
372 1 0.6375 0.45001 0.5
374 1 0.6625 0.45001 0.5
376 1 0.6875 0.45001 0.5
378 1 0.7125 0.45001 0.5
380 1 0.7375 0.45001 0.5
382 1 0.7625 0.45001 0.5
384 1 0.7875 0.45001 0.5
386 1 0.8125 0.45001 0.5
388 1 0.8375 0.45001 0.5
390 1 0.8625 0.45001 0.5
392 1 0.8875 0.45001 0.5
394 1 0.9125 0.45001 0.5
396 1 0.9375 0.45001 0.5
398 1 0.9625 0.45001 0.5
400 1 0.9875 0.45001 0.5
401 1 0 0.5 0.5
403 1 0.025 0.5 0.5
405 1 0.05 0.5 0.5
407 1 0.075 0.5 0.5
409 1 0.1 0.5 0.5
411 1 0.125 0.5 0.5
413 1 0.15 0.5 0.5
415 1 0.175 0.5 0.5
427 1 0.325 0.5 0.5
429 1 0.35 0.5 0.5
431 1 0.375 0.5 0.5
433 1 0.4 0.5 0.5
435 1 0.425 0.5 0.5
437 1 0.45 0.5 0.5
439 1 0.475 0.5 0.5
441 1 0.5 0.5 0.5
443 1 0.525 0.5 0.5
445 1 0.55 0.5 0.5
447 1 0.575 0.5 0.5
449 1 0.6 0.5 0.5
451 1 0.625 0.5 0.5
453 1 0.65 0.5 0.5
455 1 0.675 0.5 0.5
457 1 0.7 0.5 0.5
459 1 0.725 0.5 0.5
461 1 0.75 0.5 0.5
463 1 0.775 0.5 0.5
465 1 0.8 0.5 0.5
467 1 0.825 0.5 0.5
469 1 0.85 0.5 0.5
471 1 0.875 0.5 0.5
473 1 0.9 0.5 0.5
475 1 0.925 0.5 0.5
477 1 0.95 0.5 0.5
479 1 0.975 0.5 0.5
402 1 0.0125 0.54999 0.5
404 1 0.0375 0.54999 0.5
406 1 0.0625 0.54999 0.5
408 1 0.0875 0.54999 0.5
410 1 0.1125 0.54999 0.5
412 1 0.1375 0.54999 0.5
414 1 0.1625 0.54999 0.5
416 1 0.1875 0.54999 0.5
426 1 0.3125 0.54999 0.5
428 1 0.3375 0.54999 0.5
430 1 0.3625 0.54999 0.5
432 1 0.3875 0.54999 0.5
434 1 0.4125 0.54999 0.5
436 1 0.4375 0.54999 0.5
446 1 0.5625 0.54999 0.5
448 1 0.5875 0.54999 0.5
450 1 0.6125 0.54999 0.5
452 1 0.6375 0.54999 0.5
454 1 0.6625 0.54999 0.5
456 1 0.6875 0.54999 0.5
458 1 0.7125 0.54999 0.5
460 1 0.7375 0.54999 0.5
462 1 0.7625 0.54999 0.5
464 1 0.7875 0.54999 0.5
466 1 0.8125 0.54999 0.5
468 1 0.8375 0.54999 0.5
470 1 0.8625 0.54999 0.5
472 1 0.8875 0.54999 0.5
474 1 0.9125 0.54999 0.5
476 1 0.9375 0.54999 0.5
478 1 0.9625 0.54999 0.5
480 1 0.9875 0.54999 0.5
481 1 0 0.59998 0.5
483 1 0.025 0.59998 0.5
485 1 0.05 0.59998 0.5
487 1 0.075 0.59998 0.5
489 1 0.1 0.59998 0.5
491 1 0.125 0.59998 0.5
493 1 0.15 0.59998 0.5
495 1 0.175 0.59998 0.5
497 1 0.2 0.59998 0.5
499 1 0.225 0.59998 0.5
501 1 0.25 0.59998 0.5
503 1 0.275 0.59998 0.5
505 1 0.3 0.59998 0.5
507 1 0.325 0.59998 0.5
509 1 0.35 0.59998 0.5
511 1 0.375 0.59998 0.5
513 1 0.4 0.59998 0.5
515 1 0.425 0.59998 0.5
527 1 0.575 0.59998 0.5
529 1 0.6 0.59998 0.5
531 1 0.625 0.59998 0.5
533 1 0.65 0.59998 0.5
535 1 0.675 0.59998 0.5
537 1 0.7 0.59998 0.5
539 1 0.725 0.59998 0.5
541 1 0.75 0.59998 0.5
543 1 0.775 0.59998 0.5
545 1 0.8 0.59998 0.5
547 1 0.825 0.59998 0.5
549 1 0.85 0.59998 0.5
551 1 0.875 0.59998 0.5
553 1 0.9 0.59998 0.5
555 1 0.925 0.59998 0.5
557 1 0.95 0.59998 0.5
559 1 0.975 0.59998 0.5
482 1 0.0125 0.64997 0.5
484 1 0.0375 0.64997 0.5
486 1 0.0625 0.64997 0.5
488 1 0.0875 0.64997 0.5
490 1 0.1125 0.64997 0.5
492 1 0.1375 0.64997 0.5
494 1 0.1625 0.64997 0.5
496 1 0.1875 0.64997 0.5
498 1 0.2125 0.64997 0.5
500 1 0.2375 0.64997 0.5
502 1 0.2625 0.64997 0.5
504 1 0.2875 0.64997 0.5
506 1 0.3125 0.64997 0.5
508 1 0.3375 0.64997 0.5
510 1 0.3625 0.64997 0.5
512 1 0.3875 0.64997 0.5
514 1 0.4125 0.64997 0.5
528 1 0.5875 0.64997 0.5
530 1 0.6125 0.64997 0.5
532 1 0.6375 0.64997 0.5
534 1 0.6625 0.64997 0.5
536 1 0.6875 0.64997 0.5
538 1 0.7125 0.64997 0.5
540 1 0.7375 0.64997 0.5
542 1 0.7625 0.64997 0.5
544 1 0.7875 0.64997 0.5
546 1 0.8125 0.64997 0.5
548 1 0.8375 0.64997 0.5
550 1 0.8625 0.64997 0.5
552 1 0.8875 0.64997 0.5
554 1 0.9125 0.64997 0.5
556 1 0.9375 0.64997 0.5
558 1 0.9625 0.64997 0.5
560 1 0.9875 0.64997 0.5
561 1 0 0.69996 0.5
563 1 0.025 0.69996 0.5
565 1 0.05 0.69996 0.5
567 1 0.075 0.69996 0.5
569 1 0.1 0.69996 0.5
571 1 0.125 0.69996 0.5
573 1 0.15 0.69996 0.5
575 1 0.175 0.69996 0.5
577 1 0.2 0.69996 0.5
579 1 0.225 0.69996 0.5
581 1 0.25 0.69996 0.5
583 1 0.275 0.69996 0.5
585 1 0.3 0.69996 0.5
587 1 0.325 0.69996 0.5
589 1 0.35 0.69996 0.5
591 1 0.375 0.69996 0.5
593 1 0.4 0.69996 0.5
609 1 0.6 0.69996 0.5
611 1 0.625 0.69996 0.5
613 1 0.65 0.69996 0.5
615 1 0.675 0.69996 0.5
617 1 0.7 0.69996 0.5
619 1 0.725 0.69996 0.5
621 1 0.75 0.69996 0.5
623 1 0.775 0.69996 0.5
625 1 0.8 0.69996 0.5
627 1 0.825 0.69996 0.5
629 1 0.85 0.69996 0.5
631 1 0.875 0.69996 0.5
633 1 0.9 0.69996 0.5
635 1 0.925 0.69996 0.5
637 1 0.95 0.69996 0.5
639 1 0.975 0.69996 0.5
562 1 0.0125 0.74995 0.5
564 1 0.0375 0.74995 0.5
566 1 0.0625 0.74995 0.5
568 1 0.0875 0.74995 0.5
570 1 0.1125 0.74995 0.5
572 1 0.1375 0.74995 0.5
574 1 0.1625 0.74995 0.5
576 1 0.1875 0.74995 0.5
578 1 0.2125 0.74995 0.5
580 1 0.2375 0.74995 0.5
582 1 0.2625 0.74995 0.5
584 1 0.2875 0.74995 0.5
586 1 0.3125 0.74995 0.5
588 1 0.3375 0.74995 0.5
590 1 0.3625 0.74995 0.5
592 1 0.3875 0.74995 0.5
594 1 0.4125 0.74995 0.5
608 1 0.5875 0.74995 0.5
610 1 0.6125 0.74995 0.5
612 1 0.6375 0.74995 0.5
614 1 0.6625 0.74995 0.5
616 1 0.6875 0.74995 0.5
618 1 0.7125 0.74995 0.5
620 1 0.7375 0.74995 0.5
622 1 0.7625 0.74995 0.5
624 1 0.7875 0.74995 0.5
626 1 0.8125 0.74995 0.5
628 1 0.8375 0.74995 0.5
630 1 0.8625 0.74995 0.5
632 1 0.8875 0.74995 0.5
634 1 0.9125 0.74995 0.5
636 1 0.9375 0.74995 0.5
638 1 0.9625 0.74995 0.5
640 1 0.9875 0.74995 0.5
641 1 0 0.79994 0.5
643 1 0.025 0.79994 0.5
645 1 0.05 0.79994 0.5
647 1 0.075 0.79994 0.5
649 1 0.1 0.79994 0.5
651 1 0.125 0.79994 0.5
653 1 0.15 0.79994 0.5
655 1 0.175 0.79994 0.5
657 1 0.2 0.79994 0.5
659 1 0.225 0.79994 0.5
661 1 0.25 0.79994 0.5
663 1 0.275 0.79994 0.5
665 1 0.3 0.79994 0.5
667 1 0.325 0.79994 0.5
669 1 0.35 0.79994 0.5
671 1 0.375 0.79994 0.5
673 1 0.4 0.79994 0.5
675 1 0.425 0.79994 0.5
687 1 0.575 0.79994 0.5
689 1 0.6 0.79994 0.5
691 1 0.625 0.79994 0.5
693 1 0.65 0.79994 0.5
695 1 0.675 0.79994 0.5
697 1 0.7 0.79994 0.5
699 1 0.725 0.79994 0.5
701 1 0.75 0.79994 0.5
703 1 0.775 0.79994 0.5
705 1 0.8 0.79994 0.5
707 1 0.825 0.79994 0.5
709 1 0.85 0.79994 0.5
711 1 0.875 0.79994 0.5
713 1 0.9 0.79994 0.5
715 1 0.925 0.79994 0.5
717 1 0.95 0.79994 0.5
719 1 0.975 0.79994 0.5
642 1 0.0125 0.84993 0.5
644 1 0.0375 0.84993 0.5
646 1 0.0625 0.84993 0.5
648 1 0.0875 0.84993 0.5
650 1 0.1125 0.84993 0.5
652 1 0.1375 0.84993 0.5
654 1 0.1625 0.84993 0.5
656 1 0.1875 0.84993 0.5
658 1 0.2125 0.84993 0.5
660 1 0.2375 0.84993 0.5
662 1 0.2625 0.84993 0.5
664 1 0.2875 0.84993 0.5
666 1 0.3125 0.84993 0.5
668 1 0.3375 0.84993 0.5
670 1 0.3625 0.84993 0.5
672 1 0.3875 0.84993 0.5
674 1 0.4125 0.84993 0.5
676 1 0.4375 0.84993 0.5
678 1 0.4625 0.84993 0.5
684 1 0.5375 0.84993 0.5
686 1 0.5625 0.84993 0.5
688 1 0.5875 0.84993 0.5
690 1 0.6125 0.84993 0.5
692 1 0.6375 0.84993 0.5
694 1 0.6625 0.84993 0.5
696 1 0.6875 0.84993 0.5
698 1 0.7125 0.84993 0.5
700 1 0.7375 0.84993 0.5
702 1 0.7625 0.84993 0.5
704 1 0.7875 0.84993 0.5
706 1 0.8125 0.84993 0.5
708 1 0.8375 0.84993 0.5
710 1 0.8625 0.84993 0.5
712 1 0.8875 0.84993 0.5
714 1 0.9125 0.84993 0.5
716 1 0.9375 0.84993 0.5
718 1 0.9625 0.84993 0.5
720 1 0.9875 0.84993 0.5
721 3 0 0.89992 0.5
723 3 0.025 0.89992 0.5
725 3 0.05 0.89992 0.5
727 3 0.075 0.89992 0.5
729 3 0.1 0.89992 0.5
731 3 0.125 0.89992 0.5
733 3 0.15 0.89992 0.5
735 3 0.175 0.89992 0.5
737 3 0.2 0.89992 0.5
739 3 0.225 0.89992 0.5
741 3 0.25 0.89992 0.5
743 3 0.275 0.89992 0.5
745 3 0.3 0.89992 0.5
747 3 0.325 0.89992 0.5
749 3 0.35 0.89992 0.5
751 3 0.375 0.89992 0.5
753 3 0.4 0.89992 0.5
755 3 0.425 0.89992 0.5
757 3 0.45 0.89992 0.5
759 3 0.475 0.89992 0.5
761 3 0.5 0.89992 0.5
763 3 0.525 0.89992 0.5
765 3 0.55 0.89992 0.5
767 3 0.575 0.89992 0.5
769 3 0.6 0.89992 0.5
683 3 0.625 0.89992 0.5
681 3 0.65 0.89992 0.5
679 3 0.675 0.89992 0.5
607 3 0.7 0.89992 0.5
605 3 0.725 0.89992 0.5
603 3 0.75 0.89992 0.5
601 3 0.775 0.89992 0.5
599 3 0.8 0.89992 0.5
597 3 0.825 0.89992 0.5
595 3 0.85 0.89992 0.5
525 3 0.875 0.89992 0.5
523 3 0.9 0.89992 0.5
521 3 0.925 0.89992 0.5
519 3 0.95 0.89992 0.5
517 3 0.975 0.89992 0.5
722 3 0.0125 0.94991 0.5
724 3 0.0375 0.94991 0.5
726 3 0.0625 0.94991 0.5
728 3 0.0875 0.94991 0.5
730 3 0.1125 0.94991 0.5
732 3 0.1375 0.94991 0.5
734 3 0.1625 0.94991 0.5
736 3 0.1875 0.94991 0.5
738 3 0.2125 0.94991 0.5
740 3 0.2375 0.94991 0.5
742 3 0.2625 0.94991 0.5
744 3 0.2875 0.94991 0.5
746 3 0.3125 0.94991 0.5
748 3 0.3375 0.94991 0.5
750 3 0.3625 0.94991 0.5
752 3 0.3875 0.94991 0.5
754 3 0.4125 0.94991 0.5
756 3 0.4375 0.94991 0.5
758 3 0.4625 0.94991 0.5
760 3 0.4875 0.94991 0.5
762 3 0.5125 0.94991 0.5
764 3 0.5375 0.94991 0.5
766 3 0.5625 0.94991 0.5
768 3 0.5875 0.94991 0.5
685 3 0.6125 0.94991 0.5
682 3 0.6375 0.94991 0.5
680 3 0.6625 0.94991 0.5
677 3 0.6875 0.94991 0.5
606 3 0.7125 0.94991 0.5
604 3 0.7375 0.94991 0.5
602 3 0.7625 0.94991 0.5
600 3 0.7875 0.94991 0.5
598 3 0.8125 0.94991 0.5
596 3 0.8375 0.94991 0.5
526 3 0.8625 0.94991 0.5
524 3 0.8875 0.94991 0.5
522 3 0.9125 0.94991 0.5
520 3 0.9375 0.94991 0.5
518 3 0.9625 0.94991 0.5
516 3 0.9875 0.94991 0.5
444 3 0 0.9999 0.5
442 3 0.025 0.9999 0.5
440 3 0.05 0.9999 0.5
438 3 0.075 0.9999 0.5
425 3 0.1 0.9999 0.5
424 3 0.125 0.9999 0.5
423 3 0.15 0.9999 0.5
422 3 0.175 0.9999 0.5
421 3 0.2 0.9999 0.5
420 3 0.225 0.9999 0.5
419 3 0.25 0.9999 0.5
418 3 0.275 0.9999 0.5
417 3 0.3 0.9999 0.5
346 3 0.325 0.9999 0.5
345 3 0.35 0.9999 0.5
344 3 0.375 0.9999 0.5
343 3 0.4 0.9999 0.5
342 3 0.425 0.9999 0.5
341 3 0.45 0.9999 0.5
340 3 0.475 0.9999 0.5
339 3 0.5 0.9999 0.5
338 3 0.525 0.9999 0.5
337 3 0.55 0.9999 0.5
336 3 0.575 0.9999 0.5
335 3 0.6 0.9999 0.5
266 3 0.625 0.9999 0.5
265 3 0.65 0.9999 0.5
264 3 0.675 0.9999 0.5
263 3 0.7 0.9999 0.5
262 3 0.725 0.9999 0.5
261 3 0.75 0.9999 0.5
260 3 0.775 0.9999 0.5
259 3 0.8 0.9999 0.5
258 3 0.825 0.9999 0.5
257 3 0.85 0.9999 0.5
256 3 0.875 0.9999 0.5
184 3 0.9 0.9999 0.5
182 3 0.925 0.9999 0.5
180 3 0.95 0.9999 0.5
178 3 0.975 0.9999 0.5
ITEM: TIMESTEP
100
ITEM: NUMBER OF ATOMS
769
ITEM: BOX BOUNDS pp ss pp
0.0000000000000000e+00 5.1374269009840255e+01
-2.2245711031688635e-03 2.2296333992447703e+01
-3.2108918131150160e-01 3.2108918131150160e-01
ITEM: ATOMS id type xs ys zs
1 2 0 9.9763e-05 0.5
3 2 0.025 9.9763e-05 0.5
5 2 0.05 9.9763e-05 0.5
7 2 0.075 9.9763e-05 0.5
9 2 0.1 9.9763e-05 0.5
11 2 0.125 9.9763e-05 0.5
13 2 0.15 9.9763e-05 0.5
15 2 0.175 9.9763e-05 0.5
17 2 0.2 9.9763e-05 0.5
19 2 0.225 9.9763e-05 0.5
21 2 0.25 9.9763e-05 0.5
23 2 0.275 9.9763e-05 0.5
25 2 0.3 9.9763e-05 0.5
27 2 0.325 9.9763e-05 0.5
29 2 0.35 9.9763e-05 0.5
31 2 0.375 9.9763e-05 0.5
33 2 0.4 9.9763e-05 0.5
35 2 0.425 9.9763e-05 0.5
37 2 0.45 9.9763e-05 0.5
39 2 0.475 9.9763e-05 0.5
41 2 0.5 9.9763e-05 0.5
43 2 0.525 9.9763e-05 0.5
45 2 0.55 9.9763e-05 0.5
47 2 0.575 9.9763e-05 0.5
49 2 0.6 9.9763e-05 0.5
51 2 0.625 9.9763e-05 0.5
53 2 0.65 9.9763e-05 0.5
55 2 0.675 9.9763e-05 0.5
57 2 0.7 9.9763e-05 0.5
59 2 0.725 9.9763e-05 0.5
61 2 0.75 9.9763e-05 0.5
63 2 0.775 9.9763e-05 0.5
65 2 0.8 9.9763e-05 0.5
67 2 0.825 9.9763e-05 0.5
69 2 0.85 9.9763e-05 0.5
71 2 0.875 9.9763e-05 0.5
73 2 0.9 9.9763e-05 0.5
75 2 0.925 9.9763e-05 0.5
77 2 0.95 9.9763e-05 0.5
79 2 0.975 9.9763e-05 0.5
2 2 0.0125 0.0499813 0.5
4 2 0.0375 0.0499813 0.5
6 2 0.0625 0.0499813 0.5
8 2 0.0875 0.0499813 0.5
10 2 0.1125 0.0499813 0.5
12 2 0.1375 0.0499813 0.5
14 2 0.1625 0.0499813 0.5
16 2 0.1875 0.0499813 0.5
18 2 0.2125 0.0499813 0.5
20 2 0.2375 0.0499813 0.5
22 2 0.2625 0.0499813 0.5
24 2 0.2875 0.0499813 0.5
26 2 0.3125 0.0499813 0.5
28 2 0.3375 0.0499813 0.5
30 2 0.3625 0.0499813 0.5
32 2 0.3875 0.0499813 0.5
34 2 0.4125 0.0499813 0.5
36 2 0.4375 0.0499813 0.5
38 2 0.4625 0.0499813 0.5
40 2 0.4875 0.0499813 0.5
42 2 0.5125 0.0499813 0.5
44 2 0.5375 0.0499813 0.5
46 2 0.5625 0.0499813 0.5
48 2 0.5875 0.0499813 0.5
50 2 0.6125 0.0499813 0.5
52 2 0.6375 0.0499813 0.5
54 2 0.6625 0.0499813 0.5
56 2 0.6875 0.0499813 0.5
58 2 0.7125 0.0499813 0.5
60 2 0.7375 0.0499813 0.5
62 2 0.7625 0.0499813 0.5
64 2 0.7875 0.0499813 0.5
66 2 0.8125 0.0499813 0.5
68 2 0.8375 0.0499813 0.5
70 2 0.8625 0.0499813 0.5
72 2 0.8875 0.0499813 0.5
74 2 0.9125 0.0499813 0.5
76 2 0.9375 0.0499813 0.5
78 2 0.9625 0.0499813 0.5
80 2 0.9875 0.0499813 0.5
81 2 0 0.0998628 0.5
83 2 0.025 0.0998628 0.5
85 2 0.05 0.0998628 0.5
87 2 0.075 0.0998628 0.5
89 2 0.1 0.0998628 0.5
91 2 0.125 0.0998628 0.5
93 2 0.15 0.0998628 0.5
95 2 0.175 0.0998628 0.5
97 2 0.2 0.0998628 0.5
99 2 0.225 0.0998628 0.5
101 2 0.25 0.0998628 0.5
103 2 0.275 0.0998628 0.5
105 2 0.3 0.0998628 0.5
107 2 0.325 0.0998628 0.5
109 2 0.35 0.0998628 0.5
111 2 0.375 0.0998628 0.5
113 2 0.4 0.0998628 0.5
115 2 0.425 0.0998628 0.5
117 2 0.45 0.0998628 0.5
119 2 0.475 0.0998628 0.5
121 2 0.5 0.0998628 0.5
123 2 0.525 0.0998628 0.5
125 2 0.55 0.0998628 0.5
127 2 0.575 0.0998628 0.5
129 2 0.6 0.0998628 0.5
131 2 0.625 0.0998628 0.5
133 2 0.65 0.0998628 0.5
135 2 0.675 0.0998628 0.5
137 2 0.7 0.0998628 0.5
139 2 0.725 0.0998628 0.5
141 2 0.75 0.0998628 0.5
143 2 0.775 0.0998628 0.5
145 2 0.8 0.0998628 0.5
147 2 0.825 0.0998628 0.5
149 2 0.85 0.0998628 0.5
151 2 0.875 0.0998628 0.5
153 2 0.9 0.0998628 0.5
155 2 0.925 0.0998628 0.5
157 2 0.95 0.0998628 0.5
159 2 0.975 0.0998628 0.5
82 1 0.0160837 0.141558 0.5
84 1 0.0465929 0.138399 0.5
86 1 0.0590821 0.160329 0.5
88 1 0.0803962 0.137939 0.5
90 1 0.109122 0.170229 0.5
92 1 0.14204 0.133488 0.5
94 1 0.161287 0.142551 0.5
96 1 0.180919 0.142731 0.5
98 1 0.208502 0.141411 0.5
100 1 0.239875 0.132743 0.5
102 1 0.261682 0.138578 0.5
104 1 0.285974 0.142653 0.5
106 1 0.315788 0.150614 0.5
108 1 0.335538 0.132775 0.5
110 1 0.359922 0.16452 0.5
112 1 0.39401 0.161202 0.5
114 1 0.41283 0.147733 0.5
116 1 0.439091 0.160001 0.5
118 1 0.456458 0.141122 0.5
120 1 0.483321 0.147111 0.5
122 1 0.518858 0.142884 0.5
124 1 0.535558 0.145996 0.5
126 1 0.566908 0.160582 0.5
128 1 0.592808 0.160758 0.5
130 1 0.616595 0.133535 0.5
132 1 0.637116 0.166198 0.5
134 1 0.663726 0.146176 0.5
136 1 0.696811 0.155454 0.5
138 1 0.722103 0.146602 0.5
140 1 0.74675 0.149498 0.5
142 1 0.761377 0.170797 0.5
144 1 0.782423 0.163027 0.5
146 1 0.805556 0.13929 0.5
148 1 0.845407 0.138622 0.5
150 1 0.86872 0.146111 0.5
152 1 0.885292 0.164692 0.5
154 1 0.909213 0.14052 0.5
156 1 0.933861 0.133351 0.5
158 1 0.956223 0.1523 0.5
160 1 0.997832 0.135576 0.5
161 1 0.00381493 0.214859 0.5
163 1 0.0226799 0.221016 0.5
165 1 0.041909 0.213311 0.5
167 1 0.0732142 0.19406 0.5
169 1 0.0916107 0.185051 0.5
171 1 0.134107 0.2097 0.5
173 1 0.155268 0.18039 0.5
175 1 0.174289 0.195774 0.5
177 1 0.20025 0.178146 0.5
179 1 0.220343 0.179796 0.5
181 1 0.236568 0.168395 0.5
183 1 0.272555 0.165805 0.5
185 1 0.292977 0.183679 0.5
187 1 0.32003 0.194435 0.5
189 1 0.35643 0.220315 0.5
191 1 0.377668 0.194651 0.5
193 1 0.399651 0.217243 0.5
195 1 0.418847 0.189029 0.5
197 1 0.457881 0.219009 0.5
199 1 0.479767 0.185456 0.5
201 1 0.498079 0.209881 0.5
203 1 0.519846 0.196536 0.5
205 1 0.543672 0.184511 0.5
207 1 0.577637 0.197768 0.5
209 1 0.604681 0.189478 0.5
211 1 0.621572 0.219272 0.5
213 1 0.656629 0.203101 0.5
215 1 0.674166 0.223764 0.5
217 1 0.696921 0.198215 0.5
219 1 0.729089 0.20709 0.5
221 1 0.748175 0.194741 0.5
223 1 0.777225 0.217853 0.5
225 1 0.802101 0.22061 0.5
227 1 0.835801 0.183812 0.5
229 1 0.857303 0.183881 0.5
231 1 0.883548 0.208636 0.5
233 1 0.902004 0.209531 0.5
235 1 0.930881 0.19317 0.5
237 1 0.946825 0.194376 0.5
239 1 0.985396 0.184792 0.5
162 1 0.011792 0.2494 0.5
164 1 0.0337649 0.24659 0.5
166 1 0.0540474 0.25719 0.5
168 1 0.0852515 0.241517 0.5
170 1 0.117607 0.246771 0.5
172 1 0.140295 0.257333 0.5
174 1 0.170654 0.238196 0.5
176 1 0.191718 0.227172 0.5
186 1 0.319912 0.233744 0.5
188 1 0.337172 0.216137 0.5
190 1 0.35666 0.257966 0.5
192 1 0.382179 0.244246 0.5
194 1 0.415669 0.248178 0.5
196 1 0.432452 0.259182 0.5
198 1 0.471624 0.242173 0.5
200 1 0.489713 0.254447 0.5
202 1 0.508909 0.259549 0.5
204 1 0.528853 0.246105 0.5
206 1 0.563853 0.26101 0.5
208 1 0.591802 0.25654 0.5
210 1 0.606805 0.236691 0.5
212 1 0.644645 0.233847 0.5
214 1 0.65864 0.254528 0.5
216 1 0.692575 0.244289 0.5
218 1 0.718217 0.261776 0.5
220 1 0.744788 0.234 0.5
222 1 0.763076 0.24879 0.5
224 1 0.792519 0.255449 0.5
226 1 0.81063 0.266336 0.5
228 1 0.843318 0.260752 0.5
230 1 0.861096 0.25129 0.5
232 1 0.884839 0.255888 0.5
234 1 0.910207 0.244301 0.5
236 1 0.929705 0.256625 0.5
238 1 0.955129 0.246152 0.5
240 1 0.989041 0.267823 0.5
241 1 0.00258755 0.286884 0.5
243 1 0.0192605 0.309068 0.5
245 1 0.047683 0.30014 0.5
247 1 0.0760924 0.297357 0.5
249 1 0.10229 0.288304 0.5
251 1 0.124994 0.283958 0.5
253 1 0.144488 0.299615 0.5
255 1 0.163796 0.286844 0.5
267 1 0.333464 0.287021 0.5
269 1 0.352341 0.292432 0.5
271 1 0.376651 0.297825 0.5
273 1 0.402831 0.319304 0.5
275 1 0.429672 0.296916 0.5
277 1 0.451166 0.298005 0.5
279 1 0.467673 0.311479 0.5
281 1 0.501477 0.301801 0.5
283 1 0.522848 0.299869 0.5
285 1 0.548784 0.279557 0.5
287 1 0.572213 0.303045 0.5
289 1 0.595493 0.299286 0.5
291 1 0.633199 0.29334 0.5
293 1 0.650268 0.293613 0.5
295 1 0.668154 0.314853 0.5
297 1 0.701889 0.300787 0.5
299 1 0.734648 0.288571 0.5
301 1 0.752288 0.31886 0.5
303 1 0.766888 0.288102 0.5
305 1 0.808133 0.302828 0.5
307 1 0.82692 0.289012 0.5
309 1 0.856643 0.289848 0.5
311 1 0.879301 0.298511 0.5
313 1 0.900205 0.291646 0.5
315 1 0.926072 0.293154 0.5
317 1 0.957031 0.320081 0.5
319 1 0.976447 0.31851 0.5
242 1 0.0103883 0.366506 0.5
244 1 0.0352623 0.341307 0.5
246 1 0.0685887 0.337586 0.5
248 1 0.0838599 0.347202 0.5
250 1 0.118508 0.351588 0.5
252 1 0.134289 0.356504 0.5
254 1 0.15292 0.331318 0.5
268 1 0.345784 0.328981 0.5
270 1 0.372865 0.332799 0.5
272 1 0.39352 0.359247 0.5
274 1 0.411319 0.363997 0.5
276 1 0.440581 0.358247 0.5
278 1 0.456406 0.343901 0.5
280 1 0.491571 0.331172 0.5
282 1 0.505899 0.345855 0.5
284 1 0.535764 0.351894 0.5
286 1 0.558644 0.368317 0.5
288 1 0.584665 0.334071 0.5
290 1 0.614181 0.331879 0.5
292 1 0.636169 0.34579 0.5
294 1 0.656918 0.343852 0.5
296 1 0.691486 0.334407 0.5
298 1 0.707441 0.342797 0.5
300 1 0.737084 0.360655 0.5
302 1 0.772611 0.33945 0.5
304 1 0.792236 0.358238 0.5
306 1 0.82142 0.352674 0.5
308 1 0.839413 0.347502 0.5
310 1 0.85869 0.33966 0.5
312 1 0.888313 0.332419 0.5
314 1 0.909308 0.326885 0.5
316 1 0.933776 0.354414 0.5
318 1 0.963315 0.353228 0.5
320 1 0.991605 0.357396 0.5
321 1 0.993181 0.398137 0.5
323 1 0.0203956 0.403379 0.5
325 1 0.0423604 0.398216 0.5
327 1 0.0740713 0.415403 0.5
329 1 0.106104 0.393948 0.5
331 1 0.130395 0.401779 0.5
333 1 0.153859 0.403213 0.5
347 1 0.352021 0.419434 0.5
349 1 0.356913 0.358992 0.5
351 1 0.385342 0.396705 0.5
353 1 0.415828 0.406509 0.5
355 1 0.434294 0.417476 0.5
357 1 0.454322 0.389863 0.5
359 1 0.474017 0.398635 0.5
361 1 0.499517 0.407689 0.5
363 1 0.531222 0.409079 0.5
365 1 0.549692 0.399379 0.5
367 1 0.584682 0.393341 0.5
369 1 0.609541 0.390078 0.5
371 1 0.632663 0.381346 0.5
373 1 0.658738 0.393455 0.5
375 1 0.67439 0.395176 0.5
377 1 0.69407 0.403807 0.5
379 1 0.731463 0.398638 0.5
381 1 0.759538 0.410119 0.5
383 1 0.780462 0.394306 0.5
385 1 0.802389 0.399868 0.5
387 1 0.818473 0.392753 0.5
389 1 0.854869 0.401318 0.5
391 1 0.883015 0.401465 0.5
393 1 0.909899 0.382738 0.5
395 1 0.926596 0.398398 0.5
397 1 0.959103 0.39043 0.5
399 1 0.975526 0.390386 0.5
322 1 0.0121763 0.439592 0.5
324 1 0.0443816 0.438568 0.5
326 1 0.0651889 0.455988 0.5
328 1 0.0871518 0.458885 0.5
330 1 0.116738 0.464813 0.5
332 1 0.13826 0.43498 0.5
334 1 0.14707 0.464669 0.5
348 1 0.346683 0.454932 0.5
350 1 0.363864 0.443494 0.5
352 1 0.381736 0.440374 0.5
354 1 0.417328 0.451311 0.5
356 1 0.434715 0.463706 0.5
358 1 0.457905 0.458403 0.5
360 1 0.482547 0.429191 0.5
362 1 0.517583 0.436221 0.5
364 1 0.546625 0.438612 0.5
366 1 0.555183 0.471585 0.5
368 1 0.593558 0.462992 0.5
370 1 0.612988 0.454518 0.5
372 1 0.647195 0.445631 0.5
374 1 0.661818 0.430293 0.5
376 1 0.682577 0.43105 0.5
378 1 0.714743 0.456843 0.5
380 1 0.739427 0.450065 0.5
382 1 0.758979 0.45182 0.5
384 1 0.791512 0.42773 0.5
386 1 0.807487 0.440806 0.5
388 1 0.839337 0.444971 0.5
390 1 0.87023 0.428779 0.5
392 1 0.881692 0.46202 0.5
394 1 0.916779 0.447691 0.5
396 1 0.935868 0.428253 0.5
398 1 0.96518 0.435006 0.5
400 1 0.980336 0.46544 0.5
401 1 0.00567117 0.477702 0.5
403 1 0.0273309 0.499265 0.5
405 1 0.0474158 0.482453 0.5
407 1 0.0803849 0.495555 0.5
409 1 0.102842 0.499488 0.5
411 1 0.120896 0.50734 0.5
413 1 0.147175 0.512731 0.5
415 1 0.165039 0.493324 0.5
427 1 0.341814 0.52283 0.5
429 1 0.354467 0.500721 0.5
431 1 0.369445 0.50972 0.5
433 1 0.40581 0.481088 0.5
435 1 0.42081 0.498211 0.5
437 1 0.447462 0.487752 0.5
439 1 0.465543 0.491809 0.5
441 1 0.49251 0.470013 0.5
443 1 0.534262 0.468228 0.5
445 1 0.545408 0.502958 0.5
447 1 0.579876 0.497402 0.5
449 1 0.605091 0.490394 0.5
451 1 0.626607 0.511022 0.5
453 1 0.644387 0.506283 0.5
455 1 0.680427 0.506068 0.5
457 1 0.707345 0.49723 0.5
459 1 0.72411 0.4897 0.5
461 1 0.753842 0.501905 0.5
463 1 0.783716 0.504554 0.5
465 1 0.799177 0.488602 0.5
467 1 0.828856 0.476644 0.5
469 1 0.844277 0.509121 0.5
471 1 0.869912 0.496523 0.5
473 1 0.907844 0.509943 0.5
475 1 0.924764 0.510425 0.5
477 1 0.946384 0.491091 0.5
479 1 0.979196 0.514199 0.5
402 1 0.0157604 0.52706 0.5
404 1 0.0426804 0.55867 0.5
406 1 0.0613616 0.559432 0.5
408 1 0.0946827 0.556384 0.5
410 1 0.114842 0.540998 0.5
412 1 0.132667 0.567899 0.5