ITEM: TIMESTEP
0
ITEM: NUMBER OF ATOMS
769
ITEM: BOX BOUNDS pp ss pp
0.0000000000000000e+00 5.1374269009840255e+01
-2.2245711031688635e-03 2.2247935602791809e+01
-3.2108918131150160e-01 3.2108918131150160e-01
ITEM: ATOMS id type xs ys zs
1 2 0 9.998e-05 0.5
3 2 0.025 9.998e-05 0.5
5 2 0.05 9.998e-05 0.5
7 2 0.075 9.998e-05 0.5
9 2 0.1 9.998e-05 0.5
11 2 0.125 9.998e-05 0.5
13 2 0.15 9.998e-05 0.5
15 2 0.175 9.998e-05 0.5
17 2 0.2 9.998e-05 0.5
19 2 0.225 9.998e-05 0.5
21 2 0.25 9.998e-05 0.5
23 2 0.275 9.998e-05 0.5
25 2 0.3 9.998e-05 0.5
27 2 0.325 9.998e-05 0.5
29 2 0.35 9.998e-05 0.5
31 2 0.375 9.998e-05 0.5
33 2 0.4 9.998e-05 0.5
35 2 0.425 9.998e-05 0.5
37 2 0.45 9.998e-05 0.5
39 2 0.475 9.998e-05 0.5
41 2 0.5 9.998e-05 0.5
43 2 0.525 9.998e-05 0.5
45 2 0.55 9.998e-05 0.5
47 2 0.575 9.998e-05 0.5
49 2 0.6 9.998e-05 0.5
51 2 0.625 9.998e-05 0.5
53 2 0.65 9.998e-05 0.5
55 2 0.675 9.998e-05 0.5
57 2 0.7 9.998e-05 0.5
59 2 0.725 9.998e-05 0.5
61 2 0.75 9.998e-05 0.5
63 2 0.775 9.998e-05 0.5
65 2 0.8 9.998e-05 0.5
67 2 0.825 9.998e-05 0.5
69 2 0.85 9.998e-05 0.5
71 2 0.875 9.998e-05 0.5
73 2 0.9 9.998e-05 0.5
75 2 0.925 9.998e-05 0.5
77 2 0.95 9.998e-05 0.5
79 2 0.975 9.998e-05 0.5
2 2 0.0125 0.05009 0.5
4 2 0.0375 0.05009 0.5
6 2 0.0625 0.05009 0.5
8 2 0.0875 0.05009 0.5
10 2 0.1125 0.05009 0.5
12 2 0.1375 0.05009 0.5
14 2 0.1625 0.05009 0.5
16 2 0.1875 0.05009 0.5
18 2 0.2125 0.05009 0.5
20 2 0.2375 0.05009 0.5
22 2 0.2625 0.05009 0.5
24 2 0.2875 0.05009 0.5
26 2 0.3125 0.05009 0.5
28 2 0.3375 0.05009 0.5
30 2 0.3625 0.05009 0.5
32 2 0.3875 0.05009 0.5
34 2 0.4125 0.05009 0.5
36 2 0.4375 0.05009 0.5
38 2 0.4625 0.05009 0.5
40 2 0.4875 0.05009 0.5
42 2 0.5125 0.05009 0.5
44 2 0.5375 0.05009 0.5
46 2 0.5625 0.05009 0.5
48 2 0.5875 0.05009 0.5
50 2 0.6125 0.05009 0.5
52 2 0.6375 0.05009 0.5
54 2 0.6625 0.05009 0.5
56 2 0.6875 0.05009 0.5
58 2 0.7125 0.05009 0.5
60 2 0.7375 0.05009 0.5
62 2 0.7625 0.05009 0.5
64 2 0.7875 0.05009 0.5
66 2 0.8125 0.05009 0.5
68 2 0.8375 0.05009 0.5
70 2 0.8625 0.05009 0.5
72 2 0.8875 0.05009 0.5
74 2 0.9125 0.05009 0.5
76 2 0.9375 0.05009 0.5
78 2 0.9625 0.05009 0.5
80 2 0.9875 0.05009 0.5
81 2 0 0.10008 0.5
83 2 0.025 0.10008 0.5
85 2 0.05 0.10008 0.5
87 2 0.075 0.10008 0.5
89 2 0.1 0.10008 0.5
91 2 0.125 0.10008 0.5
93 2 0.15 0.10008 0.5
95 2 0.175 0.10008 0.5
97 2 0.2 0.10008 0.5
99 2 0.225 0.10008 0.5
101 2 0.25 0.10008 0.5
103 2 0.275 0.10008 0.5
105 2 0.3 0.10008 0.5
107 2 0.325 0.10008 0.5
109 2 0.35 0.10008 0.5
111 2 0.375 0.10008 0.5
113 2 0.4 0.10008 0.5
115 2 0.425 0.10008 0.5
117 2 0.45 0.10008 0.5
119 2 0.475 0.10008 0.5
121 2 0.5 0.10008 0.5
123 2 0.525 0.10008 0.5
125 2 0.55 0.10008 0.5
127 2 0.575 0.10008 0.5
129 2 0.6 0.10008 0.5
131 2 0.625 0.10008 0.5
133 2 0.65 0.10008 0.5
135 2 0.675 0.10008 0.5
137 2 0.7 0.10008 0.5
139 2 0.725 0.10008 0.5
141 2 0.75 0.10008 0.5
143 2 0.775 0.10008 0.5
145 2 0.8 0.10008 0.5
147 2 0.825 0.10008 0.5
149 2 0.85 0.10008 0.5
151 2 0.875 0.10008 0.5
153 2 0.9 0.10008 0.5
155 2 0.925 0.10008 0.5
157 2 0.95 0.10008 0.5
159 2 0.975 0.10008 0.5
82 1 0.0125 0.15007 0.5
84 1 0.0375 0.15007 0.5
86 1 0.0625 0.15007 0.5
88 1 0.0875 0.15007 0.5
90 1 0.1125 0.15007 0.5
92 1 0.1375 0.15007 0.5
94 1 0.1625 0.15007 0.5
96 1 0.1875 0.15007 0.5
98 1 0.2125 0.15007 0.5
100 1 0.2375 0.15007 0.5
102 1 0.2625 0.15007 0.5
104 1 0.2875 0.15007 0.5
106 1 0.3125 0.15007 0.5
108 1 0.3375 0.15007 0.5
110 1 0.3625 0.15007 0.5
112 1 0.3875 0.15007 0.5
114 1 0.4125 0.15007 0.5
116 1 0.4375 0.15007 0.5
118 1 0.4625 0.15007 0.5
120 1 0.4875 0.15007 0.5
122 1 0.5125 0.15007 0.5
124 1 0.5375 0.15007 0.5
126 1 0.5625 0.15007 0.5
128 1 0.5875 0.15007 0.5
130 1 0.6125 0.15007 0.5
132 1 0.6375 0.15007 0.5
134 1 0.6625 0.15007 0.5
136 1 0.6875 0.15007 0.5
138 1 0.7125 0.15007 0.5
140 1 0.7375 0.15007 0.5
142 1 0.7625 0.15007 0.5
144 1 0.7875 0.15007 0.5
146 1 0.8125 0.15007 0.5
148 1 0.8375 0.15007 0.5
150 1 0.8625 0.15007 0.5
152 1 0.8875 0.15007 0.5
154 1 0.9125 0.15007 0.5
156 1 0.9375 0.15007 0.5
158 1 0.9625 0.15007 0.5
160 1 0.9875 0.15007 0.5
161 1 0 0.20006 0.5
163 1 0.025 0.20006 0.5
165 1 0.05 0.20006 0.5
167 1 0.075 0.20006 0.5
169 1 0.1 0.20006 0.5
171 1 0.125 0.20006 0.5
173 1 0.15 0.20006 0.5
175 1 0.175 0.20006 0.5
177 1 0.2 0.20006 0.5
179 1 0.225 0.20006 0.5
181 1 0.25 0.20006 0.5
183 1 0.275 0.20006 0.5
185 1 0.3 0.20006 0.5
187 1 0.325 0.20006 0.5
189 1 0.35 0.20006 0.5
191 1 0.375 0.20006 0.5
193 1 0.4 0.20006 0.5
195 1 0.425 0.20006 0.5
197 1 0.45 0.20006 0.5
199 1 0.475 0.20006 0.5
201 1 0.5 0.20006 0.5
203 1 0.525 0.20006 0.5
205 1 0.55 0.20006 0.5
207 1 0.575 0.20006 0.5
209 1 0.6 0.20006 0.5
211 1 0.625 0.20006 0.5
213 1 0.65 0.20006 0.5
215 1 0.675 0.20006 0.5
217 1 0.7 0.20006 0.5
219 1 0.725 0.20006 0.5
221 1 0.75 0.20006 0.5
223 1 0.775 0.20006 0.5
225 1 0.8 0.20006 0.5
227 1 0.825 0.20006 0.5
229 1 0.85 0.20006 0.5
231 1 0.875 0.20006 0.5
233 1 0.9 0.20006 0.5
235 1 0.925 0.20006 0.5
237 1 0.95 0.20006 0.5
239 1 0.975 0.20006 0.5
162 1 0.0125 0.25005 0.5
164 1 0.0375 0.25005 0.5
166 1 0.0625 0.25005 0.5
168 1 0.0875 0.25005 0.5
170 1 0.1125 0.25005 0.5
172 1 0.1375 0.25005 0.5
174 1 0.1625 0.25005 0.5
176 1 0.1875 0.25005 0.5
186 1 0.3125 0.25005 0.5
188 1 0.3375 0.25005 0.5
190 1 0.3625 0.25005 0.5
192 1 0.3875 0.25005 0.5
194 1 0.4125 0.25005 0.5
196 1 0.4375 0.25005 0.5
198 1 0.4625 0.25005 0.5
200 1 0.4875 0.25005 0.5
202 1 0.5125 0.25005 0.5
204 1 0.5375 0.25005 0.5
206 1 0.5625 0.25005 0.5
208 1 0.5875 0.25005 0.5
210 1 0.6125 0.25005 0.5
212 1 0.6375 0.25005 0.5
214 1 0.6625 0.25005 0.5
216 1 0.6875 0.25005 0.5
218 1 0.7125 0.25005 0.5
220 1 0.7375 0.25005 0.5
222 1 0.7625 0.25005 0.5
224 1 0.7875 0.25005 0.5
226 1 0.8125 0.25005 0.5
228 1 0.8375 0.25005 0.5
230 1 0.8625 0.25005 0.5
232 1 0.8875 0.25005 0.5
234 1 0.9125 0.25005 0.5
236 1 0.9375 0.25005 0.5
238 1 0.9625 0.25005 0.5
240 1 0.9875 0.25005 0.5
241 1 0 0.30004 0.5
243 1 0.025 0.30004 0.5
245 1 0.05 0.30004 0.5
247 1 0.075 0.30004 0.5
249 1 0.1 0.30004 0.5
251 1 0.125 0.30004 0.5
253 1 0.15 0.30004 0.5
255 1 0.175 0.30004 0.5
267 1 0.325 0.30004 0.5
269 1 0.35 0.30004 0.5
271 1 0.375 0.30004 0.5
273 1 0.4 0.30004 0.5
275 1 0.425 0.30004 0.5
277 1 0.45 0.30004 0.5
279 1 0.475 0.30004 0.5
281 1 0.5 0.30004 0.5
283 1 0.525 0.30004 0.5
285 1 0.55 0.30004 0.5
287 1 0.575 0.30004 0.5
289 1 0.6 0.30004 0.5
291 1 0.625 0.30004 0.5
293 1 0.65 0.30004 0.5
295 1 0.675 0.30004 0.5
297 1 0.7 0.30004 0.5
299 1 0.725 0.30004 0.5
301 1 0.75 0.30004 0.5
303 1 0.775 0.30004 0.5
305 1 0.8 0.30004 0.5
307 1 0.825 0.30004 0.5
309 1 0.85 0.30004 0.5
311 1 0.875 0.30004 0.5
313 1 0.9 0.30004 0.5
315 1 0.925 0.30004 0.5
317 1 0.95 0.30004 0.5
319 1 0.975 0.30004 0.5
242 1 0.0125 0.35003 0.5
244 1 0.0375 0.35003 0.5
246 1 0.0625 0.35003 0.5
248 1 0.0875 0.35003 0.5
250 1 0.1125 0.35003 0.5
252 1 0.1375 0.35003 0.5
254 1 0.1625 0.35003 0.5
268 1 0.3375 0.35003 0.5
270 1 0.3625 0.35003 0.5
272 1 0.3875 0.35003 0.5
274 1 0.4125 0.35003 0.5
276 1 0.4375 0.35003 0.5
278 1 0.4625 0.35003 0.5
280 1 0.4875 0.35003 0.5
282 1 0.5125 0.35003 0.5
284 1 0.5375 0.35003 0.5
286 1 0.5625 0.35003 0.5
288 1 0.5875 0.35003 0.5
290 1 0.6125 0.35003 0.5
292 1 0.6375 0.35003 0.5
294 1 0.6625 0.35003 0.5
296 1 0.6875 0.35003 0.5
298 1 0.7125 0.35003 0.5
300 1 0.7375 0.35003 0.5
302 1 0.7625 0.35003 0.5
304 1 0.7875 0.35003 0.5
306 1 0.8125 0.35003 0.5
308 1 0.8375 0.35003 0.5
310 1 0.8625 0.35003 0.5
312 1 0.8875 0.35003 0.5
314 1 0.9125 0.35003 0.5
316 1 0.9375 0.35003 0.5
318 1 0.9625 0.35003 0.5
320 1 0.9875 0.35003 0.5
321 1 0 0.40002 0.5
323 1 0.025 0.40002 0.5
325 1 0.05 0.40002 0.5
327 1 0.075 0.40002 0.5
329 1 0.1 0.40002 0.5
331 1 0.125 0.40002 0.5
333 1 0.15 0.40002 0.5
347 1 0.325 0.40002 0.5
349 1 0.35 0.40002 0.5
351 1 0.375 0.40002 0.5
353 1 0.4 0.40002 0.5
355 1 0.425 0.40002 0.5
357 1 0.45 0.40002 0.5
359 1 0.475 0.40002 0.5
361 1 0.5 0.40002 0.5
363 1 0.525 0.40002 0.5
365 1 0.55 0.40002 0.5
367 1 0.575 0.40002 0.5
369 1 0.6 0.40002 0.5
371 1 0.625 0.40002 0.5
373 1 0.65 0.40002 0.5
375 1 0.675 0.40002 0.5
377 1 0.7 0.40002 0.5
379 1 0.725 0.40002 0.5
381 1 0.75 0.40002 0.5
383 1 0.775 0.40002 0.5
385 1 0.8 0.40002 0.5
387 1 0.825 0.40002 0.5
389 1 0.85 0.40002 0.5
391 1 0.875 0.40002 0.5
393 1 0.9 0.40002 0.5
395 1 0.925 0.40002 0.5
397 1 0.95 0.40002 0.5
399 1 0.975 0.40002 0.5
322 1 0.0125 0.45001 0.5
324 1 0.0375 0.45001 0.5
326 1 0.0625 0.45001 0.5
328 1 0.0875 0.45001 0.5
330 1 0.1125 0.45001 0.5
332 1 0.1375 0.45001 0.5
334 1 0.1625 0.45001 0.5
348 1 0.3375 0.45001 0.5
350 1 0.3625 0.45001 0.5
352 1 0.3875 0.45001 0.5
354 1 0.4125 0.45001 0.5
356 1 0.4375 0.45001 0.5
358 1 0.4625 0.45001 0.5
360 1 0.4875 0.45001 0.5
362 1 0.5125 0.45001 0.5
364 1 0.5375 0.45001 0.5
366 1 0.5625 0.45001 0.5
368 1 0.5875 0.45001 0.5
370 1 0.6125 0.45001 0.5
372 1 0.6375 0.45001 0.5
374 1 0.6625 0.45001 0.5
376 1 0.6875 0.45001 0.5
378 1 0.7125 0.45001 0.5
380 1 0.7375 0.45001 0.5
382 1 0.7625 0.45001 0.5
384 1 0.7875 0.45001 0.5
386 1 0.8125 0.45001 0.5
388 1 0.8375 0.45001 0.5
390 1 0.8625 0.45001 0.5
392 1 0.8875 0.45001 0.5
394 1 0.9125 0.45001 0.5
396 1 0.9375 0.45001 0.5
398 1 0.9625 0.45001 0.5
400 1 0.9875 0.45001 0.5
401 1 0 0.5 0.5
403 1 0.025 0.5 0.5
405 1 0.05 0.5 0.5
407 1 0.075 0.5 0.5
409 1 0.1 0.5 0.5
411 1 0.125 0.5 0.5
413 1 0.15 0.5 0.5
415 1 0.175 0.5 0.5
427 1 0.325 0.5 0.5
429 1 0.35 0.5 0.5
431 1 0.375 0.5 0.5
433 1 0.4 0.5 0.5
435 1 0.425 0.5 0.5
437 1 0.45 0.5 0.5
439 1 0.475 0.5 0.5
441 1 0.5 0.5 0.5
443 1 0.525 0.5 0.5
445 1 0.55 0.5 0.5
447 1 0.575 0.5 0.5
449 1 0.6 0.5 0.5
451 1 0.625 0.5 0.5
453 1 0.65 0.5 0.5
455 1 0.675 0.5 0.5
457 1 0.7 0.5 0.5
459 1 0.725 0.5 0.5
461 1 0.75 0.5 0.5
463 1 0.775 0.5 0.5
465 1 0.8 0.5 0.5
467 1 0.825 0.5 0.5
469 1 0.85 0.5 0.5
471 1 0.875 0.5 0.5
473 1 0.9 0.5 0.5
475 1 0.925 0.5 0.5
477 1 0.95 0.5 0.5
479 1 0.975 0.5 0.5
402 1 0.0125 0.54999 0.5
404 1 0.0375 0.54999 0.5
406 1 0.0625 0.54999 0.5
408 1 0.0875 0.54999 0.5
410 1 0.1125 0.54999 0.5
412 1 0.1375 0.54999 0.5
414 1 0.1625 0.54999 0.5
416 1 0.1875 0.54999 0.5
426 1 0.3125 0.54999 0.5
428 1 0.3375 0.54999 0.5
430 1 0.3625 0.54999 0.5
432 1 0.3875 0.54999 0.5
434 1 0.4125 0.54999 0.5
436 1 0.4375 0.54999 0.5
446 1 0.5625 0.54999 0.5
448 1 0.5875 0.54999 0.5
450 1 0.6125 0.54999 0.5
452 1 0.6375 0.54999 0.5
454 1 0.6625 0.54999 0.5
456 1 0.6875 0.54999 0.5
458 1 0.7125 0.54999 0.5
460 1 0.7375 0.54999 0.5
462 1 0.7625 0.54999 0.5
464 1 0.7875 0.54999 0.5
466 1 0.8125 0.54999 0.5
468 1 0.8375 0.54999 0.5
470 1 0.8625 0.54999 0.5
472 1 0.8875 0.54999 0.5
474 1 0.9125 0.54999 0.5
476 1 0.9375 0.54999 0.5
478 1 0.9625 0.54999 0.5
480 1 0.9875 0.54999 0.5
481 1 0 0.59998 0.5
483 1 0.025 0.59998 0.5
485 1 0.05 0.59998 0.5
487 1 0.075 0.59998 0.5
489 1 0.1 0.59998 0.5
491 1 0.125 0.59998 0.5
493 1 0.15 0.59998 0.5
495 1 0.175 0.59998 0.5
497 1 0.2 0.59998 0.5
499 1 0.225 0.59998 0.5
501 1 0.25 0.59998 0.5
503 1 0.275 0.59998 0.5
505 1 0.3 0.59998 0.5
507 1 0.325 0.59998 0.5
509 1 0.35 0.59998 0.5
511 1 0.375 0.59998 0.5
513 1 0.4 0.59998 0.5
515 1 0.425 0.59998 0.5
527 1 0.575 0.59998 0.5
529 1 0.6 0.59998 0.5
531 1 0.625 0.59998 0.5
533 1 0.65 0.59998 0.5
535 1 0.675 0.59998 0.5
537 1 0.7 0.59998 0.5
539 1 0.725 0.59998 0.5
541 1 0.75 0.59998 0.5
543 1 0.775 0.59998 0.5
545 1 0.8 0.59998 0.5
547 1 0.825 0.59998 0.5
549 1 0.85 0.59998 0.5
551 1 0.875 0.59998 0.5
553 1 0.9 0.59998 0.5
555 1 0.925 0.59998 0.5
557 1 0.95 0.59998 0.5
559 1 0.975 0.59998 0.5
482 1 0.0125 0.64997 0.5
484 1 0.0375 0.64997 0.5
486 1 0.0625 0.64997 0.5
488 1 0.0875 0.64997 0.5
490 1 0.1125 0.64997 0.5
492 1 0.1375 0.64997 0.5
494 1 0.1625 0.64997 0.5
496 1 0.1875 0.64997 0.5
498 1 0.2125 0.64997 0.5
500 1 0.2375 0.64997 0.5
502 1 0.2625 0.64997 0.5
504 1 0.2875 0.64997 0.5
506 1 0.3125 0.64997 0.5
508 1 0.3375 0.64997 0.5
510 1 0.3625 0.64997 0.5
512 1 0.3875 0.64997 0.5
514 1 0.4125 0.64997 0.5
528 1 0.5875 0.64997 0.5
530 1 0.6125 0.64997 0.5
532 1 0.6375 0.64997 0.5
534 1 0.6625 0.64997 0.5
536 1 0.6875 0.64997 0.5
538 1 0.7125 0.64997 0.5
540 1 0.7375 0.64997 0.5
542 1 0.7625 0.64997 0.5
544 1 0.7875 0.64997 0.5
546 1 0.8125 0.64997 0.5
548 1 0.8375 0.64997 0.5
550 1 0.8625 0.64997 0.5
552 1 0.8875 0.64997 0.5
554 1 0.9125 0.64997 0.5
556 1 0.9375 0.64997 0.5
558 1 0.9625 0.64997 0.5
560 1 0.9875 0.64997 0.5
561 1 0 0.69996 0.5
563 1 0.025 0.69996 0.5
565 1 0.05 0.69996 0.5
567 1 0.075 0.69996 0.5
569 1 0.1 0.69996 0.5
571 1 0.125 0.69996 0.5
573 1 0.15 0.69996 0.5
575 1 0.175 0.69996 0.5
577 1 0.2 0.69996 0.5
579 1 0.225 0.69996 0.5
581 1 0.25 0.69996 0.5
583 1 0.275 0.69996 0.5
585 1 0.3 0.69996 0.5
587 1 0.325 0.69996 0.5
589 1 0.35 0.69996 0.5
591 1 0.375 0.69996 0.5
593 1 0.4 0.69996 0.5
609 1 0.6 0.69996 0.5
611 1 0.625 0.69996 0.5
613 1 0.65 0.69996 0.5
615 1 0.675 0.69996 0.5
617 1 0.7 0.69996 0.5
619 1 0.725 0.69996 0.5
621 1 0.75 0.69996 0.5
623 1 0.775 0.69996 0.5
625 1 0.8 0.69996 0.5
627 1 0.825 0.69996 0.5
629 1 0.85 0.69996 0.5
631 1 0.875 0.69996 0.5
633 1 0.9 0.69996 0.5
635 1 0.925 0.69996 0.5
637 1 0.95 0.69996 0.5
639 1 0.975 0.69996 0.5
562 1 0.0125 0.74995 0.5
564 1 0.0375 0.74995 0.5
566 1 0.0625 0.74995 0.5
568 1 0.0875 0.74995 0.5
570 1 0.1125 0.74995 0.5
572 1 0.1375 0.74995 0.5
574 1 0.1625 0.74995 0.5
576 1 0.1875 0.74995 0.5
578 1 0.2125 0.74995 0.5
580 1 0.2375 0.74995 0.5
582 1 0.2625 0.74995 0.5
584 1 0.2875 0.74995 0.5
586 1 0.3125 0.74995 0.5
588 1 0.3375 0.74995 0.5
590 1 0.3625 0.74995 0.5
592 1 0.3875 0.74995 0.5
594 1 0.4125 0.74995 0.5
608 1 0.5875 0.74995 0.5
610 1 0.6125 0.74995 0.5
612 1 0.6375 0.74995 0.5
614 1 0.6625 0.74995 0.5
616 1 0.6875 0.74995 0.5
618 1 0.7125 0.74995 0.5
620 1 0.7375 0.74995 0.5
622 1 0.7625 0.74995 0.5
624 1 0.7875 0.74995 0.5
626 1 0.8125 0.74995 0.5
628 1 0.8375 0.74995 0.5
630 1 0.8625 0.74995 0.5
632 1 0.8875 0.74995 0.5
634 1 0.9125 0.74995 0.5
636 1 0.9375 0.74995 0.5
638 1 0.9625 0.74995 0.5
640 1 0.9875 0.74995 0.5
641 1 0 0.79994 0.5
643 1 0.025 0.79994 0.5
645 1 0.05 0.79994 0.5
647 1 0.075 0.79994 0.5
649 1 0.1 0.79994 0.5
651 1 0.125 0.79994 0.5
653 1 0.15 0.79994 0.5
655 1 0.175 0.79994 0.5
657 1 0.2 0.79994 0.5
659 1 0.225 0.79994 0.5
661 1 0.25 0.79994 0.5
663 1 0.275 0.79994 0.5
665 1 0.3 0.79994 0.5
667 1 0.325 0.79994 0.5
669 1 0.35 0.79994 0.5
671 1 0.375 0.79994 0.5
673 1 0.4 0.79994 0.5
675 1 0.425 0.79994 0.5
687 1 0.575 0.79994 0.5
689 1 0.6 0.79994 0.5
691 1 0.625 0.79994 0.5
693 1 0.65 0.79994 0.5
695 1 0.675 0.79994 0.5
697 1 0.7 0.79994 0.5
699 1 0.725 0.79994 0.5
701 1 0.75 0.79994 0.5
703 1 0.775 0.79994 0.5
705 1 0.8 0.79994 0.5
707 1 0.825 0.79994 0.5
709 1 0.85 0.79994 0.5
711 1 0.875 0.79994 0.5
713 1 0.9 0.79994 0.5
715 1 0.925 0.79994 0.5
717 1 0.95 0.79994 0.5
719 1 0.975 0.79994 0.5
642 1 0.0125 0.84993 0.5
644 1 0.0375 0.84993 0.5
646 1 0.0625 0.84993 0.5
648 1 0.0875 0.84993 0.5
650 1 0.1125 0.84993 0.5
652 1 0.1375 0.84993 0.5
654 1 0.1625 0.84993 0.5
656 1 0.1875 0.84993 0.5
658 1 0.2125 0.84993 0.5
660 1 0.2375 0.84993 0.5
662 1 0.2625 0.84993 0.5
664 1 0.2875 0.84993 0.5
666 1 0.3125 0.84993 0.5
668 1 0.3375 0.84993 0.5
670 1 0.3625 0.84993 0.5
672 1 0.3875 0.84993 0.5
674 1 0.4125 0.84993 0.5
676 1 0.4375 0.84993 0.5
678 1 0.4625 0.84993 0.5
684 1 0.5375 0.84993 0.5
686 1 0.5625 0.84993 0.5
688 1 0.5875 0.84993 0.5
690 1 0.6125 0.84993 0.5
692 1 0.6375 0.84993 0.5
694 1 0.6625 0.84993 0.5
696 1 0.6875 0.84993 0.5
698 1 0.7125 0.84993 0.5
700 1 0.7375 0.84993 0.5
702 1 0.7625 0.84993 0.5
704 1 0.7875 0.84993 0.5
706 1 0.8125 0.84993 0.5
708 1 0.8375 0.84993 0.5
710 1 0.8625 0.84993 0.5
712 1 0.8875 0.84993 0.5
714 1 0.9125 0.84993 0.5
716 1 0.9375 0.84993 0.5
718 1 0.9625 0.84993 0.5
720 1 0.9875 0.84993 0.5
721 3 0 0.89992 0.5
723 3 0.025 0.89992 0.5
725 3 0.05 0.89992 0.5
727 3 0.075 0.89992 0.5
729 3 0.1 0.89992 0.5
731 3 0.125 0.89992 0.5
733 3 0.15 0.89992 0.5
735 3 0.175 0.89992 0.5
737 3 0.2 0.89992 0.5
739 3 0.225 0.89992 0.5
741 3 0.25 0.89992 0.5
743 3 0.275 0.89992 0.5
745 3 0.3 0.89992 0.5
747 3 0.325 0.89992 0.5
749 3 0.35 0.89992 0.5
751 3 0.375 0.89992 0.5
753 3 0.4 0.89992 0.5
755 3 0.425 0.89992 0.5
757 3 0.45 0.89992 0.5
759 3 0.475 0.89992 0.5
761 3 0.5 0.89992 0.5
763 3 0.525 0.89992 0.5
765 3 0.55 0.89992 0.5
767 3 0.575 0.89992 0.5
769 3 0.6 0.89992 0.5
683 3 0.625 0.89992 0.5
681 3 0.65 0.89992 0.5
679 3 0.675 0.89992 0.5
607 3 0.7 0.89992 0.5
605 3 0.725 0.89992 0.5
603 3 0.75 0.89992 0.5
601 3 0.775 0.89992 0.5
599 3 0.8 0.89992 0.5
597 3 0.825 0.89992 0.5
595 3 0.85 0.89992 0.5
525 3 0.875 0.89992 0.5
523 3 0.9 0.89992 0.5
521 3 0.925 0.89992 0.5
519 3 0.95 0.89992 0.5
517 3 0.975 0.89992 0.5
722 3 0.0125 0.94991 0.5
724 3 0.0375 0.94991 0.5
726 3 0.0625 0.94991 0.5
728 3 0.0875 0.94991 0.5
730 3 0.1125 0.94991 0.5
732 3 0.1375 0.94991 0.5
734 3 0.1625 0.94991 0.5
736 3 0.1875 0.94991 0.5
738 3 0.2125 0.94991 0.5
740 3 0.2375 0.94991 0.5
742 3 0.2625 0.94991 0.5
744 3 0.2875 0.94991 0.5
746 3 0.3125 0.94991 0.5
748 3 0.3375 0.94991 0.5
750 3 0.3625 0.94991 0.5
752 3 0.3875 0.94991 0.5
754 3 0.4125 0.94991 0.5
756 3 0.4375 0.94991 0.5
758 3 0.4625 0.94991 0.5
760 3 0.4875 0.94991 0.5
762 3 0.5125 0.94991 0.5
764 3 0.5375 0.94991 0.5
766 3 0.5625 0.94991 0.5
768 3 0.5875 0.94991 0.5
685 3 0.6125 0.94991 0.5
682 3 0.6375 0.94991 0.5
680 3 0.6625 0.94991 0.5
677 3 0.6875 0.94991 0.5
606 3 0.7125 0.94991 0.5
604 3 0.7375 0.94991 0.5
602 3 0.7625 0.94991 0.5
600 3 0.7875 0.94991 0.5
598 3 0.8125 0.94991 0.5
596 3 0.8375 0.94991 0.5
526 3 0.8625 0.94991 0.5
524 3 0.8875 0.94991 0.5
522 3 0.9125 0.94991 0.5
520 3 0.9375 0.94991 0.5
518 3 0.9625 0.94991 0.5
516 3 0.9875 0.94991 0.5
444 3 0 0.9999 0.5
442 3 0.025 0.9999 0.5
440 3 0.05 0.9999 0.5
438 3 0.075 0.9999 0.5
425 3 0.1 0.9999 0.5
424 3 0.125 0.9999 0.5
423 3 0.15 0.9999 0.5
422 3 0.175 0.9999 0.5
421 3 0.2 0.9999 0.5
420 3 0.225 0.9999 0.5
419 3 0.25 0.9999 0.5
418 3 0.275 0.9999 0.5
417 3 0.3 0.9999 0.5
346 3 0.325 0.9999 0.5
345 3 0.35 0.9999 0.5
344 3 0.375 0.9999 0.5
343 3 0.4 0.9999 0.5
342 3 0.425 0.9999 0.5
341 3 0.45 0.9999 0.5
340 3 0.475 0.9999 0.5
339 3 0.5 0.9999 0.5
338 3 0.525 0.9999 0.5
337 3 0.55 0.9999 0.5
336 3 0.575 0.9999 0.5
335 3 0.6 0.9999 0.5
266 3 0.625 0.9999 0.5
265 3 0.65 0.9999 0.5
264 3 0.675 0.9999 0.5
263 3 0.7 0.9999 0.5
262 3 0.725 0.9999 0.5
261 3 0.75 0.9999 0.5
260 3 0.775 0.9999 0.5
259 3 0.8 0.9999 0.5
258 3 0.825 0.9999 0.5
257 3 0.85 0.9999 0.5
256 3 0.875 0.9999 0.5
184 3 0.9 0.9999 0.5
182 3 0.925 0.9999 0.5
180 3 0.95 0.9999 0.5
178 3 0.975 0.9999 0.5
ITEM: TIMESTEP
100
ITEM: NUMBER OF ATOMS
769
ITEM: BOX BOUNDS pp ss pp
0.0000000000000000e+00 5.1374269009840255e+01
-2.2245711031688635e-03 2.2276852544029154e+01
-3.2108918131150160e-01 3.2108918131150160e-01
ITEM: ATOMS id type xs ys zs
1 2 0 9.98502e-05 0.5
3 2 0.025 9.98502e-05 0.5
5 2 0.05 9.98502e-05 0.5
7 2 0.075 9.98502e-05 0.5
9 2 0.1 9.98502e-05 0.5
11 2 0.125 9.98502e-05 0.5
13 2 0.15 9.98502e-05 0.5
15 2 0.175 9.98502e-05 0.5
17 2 0.2 9.98502e-05 0.5
19 2 0.225 9.98502e-05 0.5
21 2 0.25 9.98502e-05 0.5
23 2 0.275 9.98502e-05 0.5
25 2 0.3 9.98502e-05 0.5
27 2 0.325 9.98502e-05 0.5
29 2 0.35 9.98502e-05 0.5
31 2 0.375 9.98502e-05 0.5
33 2 0.4 9.98502e-05 0.5
35 2 0.425 9.98502e-05 0.5
37 2 0.45 9.98502e-05 0.5
39 2 0.475 9.98502e-05 0.5
41 2 0.5 9.98502e-05 0.5
43 2 0.525 9.98502e-05 0.5
45 2 0.55 9.98502e-05 0.5
47 2 0.575 9.98502e-05 0.5
49 2 0.6 9.98502e-05 0.5
51 2 0.625 9.98502e-05 0.5
53 2 0.65 9.98502e-05 0.5
55 2 0.675 9.98502e-05 0.5
57 2 0.7 9.98502e-05 0.5
59 2 0.725 9.98502e-05 0.5
61 2 0.75 9.98502e-05 0.5
63 2 0.775 9.98502e-05 0.5
65 2 0.8 9.98502e-05 0.5
67 2 0.825 9.98502e-05 0.5
69 2 0.85 9.98502e-05 0.5
71 2 0.875 9.98502e-05 0.5
73 2 0.9 9.98502e-05 0.5
75 2 0.925 9.98502e-05 0.5
77 2 0.95 9.98502e-05 0.5
79 2 0.975 9.98502e-05 0.5
2 2 0.0125 0.050025 0.5
4 2 0.0375 0.050025 0.5
6 2 0.0625 0.050025 0.5
8 2 0.0875 0.050025 0.5
10 2 0.1125 0.050025 0.5
12 2 0.1375 0.050025 0.5
14 2 0.1625 0.050025 0.5
16 2 0.1875 0.050025 0.5
18 2 0.2125 0.050025 0.5
20 2 0.2375 0.050025 0.5
22 2 0.2625 0.050025 0.5
24 2 0.2875 0.050025 0.5
26 2 0.3125 0.050025 0.5
28 2 0.3375 0.050025 0.5
30 2 0.3625 0.050025 0.5
32 2 0.3875 0.050025 0.5
34 2 0.4125 0.050025 0.5
36 2 0.4375 0.050025 0.5
38 2 0.4625 0.050025 0.5
40 2 0.4875 0.050025 0.5
42 2 0.5125 0.050025 0.5
44 2 0.5375 0.050025 0.5
46 2 0.5625 0.050025 0.5
48 2 0.5875 0.050025 0.5
50 2 0.6125 0.050025 0.5
52 2 0.6375 0.050025 0.5
54 2 0.6625 0.050025 0.5
56 2 0.6875 0.050025 0.5
58 2 0.7125 0.050025 0.5
60 2 0.7375 0.050025 0.5
62 2 0.7625 0.050025 0.5
64 2 0.7875 0.050025 0.5
66 2 0.8125 0.050025 0.5
68 2 0.8375 0.050025 0.5
70 2 0.8625 0.050025 0.5
72 2 0.8875 0.050025 0.5
74 2 0.9125 0.050025 0.5
76 2 0.9375 0.050025 0.5
78 2 0.9625 0.050025 0.5
80 2 0.9875 0.050025 0.5
81 2 0 0.0999501 0.5
83 2 0.025 0.0999501 0.5
85 2 0.05 0.0999501 0.5
87 2 0.075 0.0999501 0.5
89 2 0.1 0.0999501 0.5
91 2 0.125 0.0999501 0.5
93 2 0.15 0.0999501 0.5
95 2 0.175 0.0999501 0.5
97 2 0.2 0.0999501 0.5
99 2 0.225 0.0999501 0.5
101 2 0.25 0.0999501 0.5
103 2 0.275 0.0999501 0.5
105 2 0.3 0.0999501 0.5
107 2 0.325 0.0999501 0.5
109 2 0.35 0.0999501 0.5
111 2 0.375 0.0999501 0.5
113 2 0.4 0.0999501 0.5
115 2 0.425 0.0999501 0.5
117 2 0.45 0.0999501 0.5
119 2 0.475 0.0999501 0.5
121 2 0.5 0.0999501 0.5
123 2 0.525 0.0999501 0.5
125 2 0.55 0.0999501 0.5
127 2 0.575 0.0999501 0.5
129 2 0.6 0.0999501 0.5
131 2 0.625 0.0999501 0.5
133 2 0.65 0.0999501 0.5
135 2 0.675 0.0999501 0.5
137 2 0.7 0.0999501 0.5
139 2 0.725 0.0999501 0.5
141 2 0.75 0.0999501 0.5
143 2 0.775 0.0999501 0.5
145 2 0.8 0.0999501 0.5
147 2 0.825 0.0999501 0.5
149 2 0.85 0.0999501 0.5
151 2 0.875 0.0999501 0.5
153 2 0.9 0.0999501 0.5
155 2 0.925 0.0999501 0.5
157 2 0.95 0.0999501 0.5
159 2 0.975 0.0999501 0.5
82 1 0.0160729 0.139525 0.5
84 1 0.0409784 0.141943 0.5
86 1 0.0627799 0.161503 0.5
88 1 0.0822672 0.143579 0.5
90 1 0.109701 0.168482 0.5
92 1 0.139101 0.140999 0.5
94 1 0.163429 0.136225 0.5
96 1 0.183176 0.144628 0.5
98 1 0.211303 0.13559 0.5
100 1 0.236663 0.134122 0.5
102 1 0.259939 0.13486 0.5
104 1 0.286634 0.132986 0.5
106 1 0.313999 0.142856 0.5
108 1 0.336978 0.137978 0.5
110 1 0.359358 0.165266 0.5
112 1 0.395087 0.16179 0.5
114 1 0.413536 0.142741 0.5
116 1 0.437374 0.159202 0.5
118 1 0.460283 0.146644 0.5
120 1 0.483197 0.14254 0.5
122 1 0.515493 0.142968 0.5
124 1 0.537303 0.138561 0.5
126 1 0.566848 0.159475 0.5
128 1 0.590595 0.153255 0.5
130 1 0.613705 0.141961 0.5
132 1 0.637068 0.167623 0.5
134 1 0.662371 0.144659 0.5
136 1 0.698648 0.153721 0.5
138 1 0.722301 0.147315 0.5
140 1 0.744242 0.147318 0.5
142 1 0.764797 0.169174 0.5
144 1 0.783751 0.163236 0.5
146 1 0.805934 0.144255 0.5
148 1 0.845793 0.14412 0.5
150 1 0.86699 0.142359 0.5
152 1 0.887291 0.164453 0.5
154 1 0.910009 0.140041 0.5
156 1 0.935455 0.140548 0.5
158 1 0.956283 0.145049 0.5
160 1 0.994941 0.146393 0.5
161 1 0.00079198 0.212456 0.5
163 1 0.0228953 0.211868 0.5
165 1 0.0435924 0.209704 0.5
167 1 0.0708951 0.201521 0.5
169 1 0.0888632 0.187488 0.5
171 1 0.134433 0.210696 0.5
173 1 0.153678 0.186919 0.5
175 1 0.176139 0.184864 0.5
177 1 0.196722 0.181087 0.5
179 1 0.221087 0.180494 0.5
181 1 0.241724 0.176932 0.5
183 1 0.273574 0.171497 0.5
185 1 0.295527 0.184731 0.5
187 1 0.32165 0.191669 0.5
189 1 0.358483 0.207996 0.5
191 1 0.375643 0.197392 0.5
193 1 0.40153 0.212609 0.5
195 1 0.418608 0.190374 0.5
197 1 0.457028 0.214725 0.5
199 1 0.476008 0.193167 0.5
201 1 0.501039 0.211673 0.5
203 1 0.5207 0.195056 0.5
205 1 0.54439 0.18846 0.5
207 1 0.579518 0.197388 0.5
209 1 0.603747 0.193128 0.5
211 1 0.624259 0.21013 0.5
213 1 0.655185 0.196002 0.5
215 1 0.678569 0.22537 0.5
217 1 0.695551 0.199277 0.5
219 1 0.728194 0.206272 0.5
221 1 0.74811 0.195791 0.5
223 1 0.778798 0.214656 0.5
225 1 0.801552 0.217145 0.5
227 1 0.83677 0.182929 0.5
229 1 0.857403 0.183393 0.5
231 1 0.879968 0.207714 0.5
233 1 0.901211 0.206378 0.5
235 1 0.926775 0.193983 0.5
237 1 0.949132 0.19989 0.5
239 1 0.985922 0.183031 0.5
162 1 0.0138986 0.258147 0.5
164 1 0.0353178 0.257655 0.5
166 1 0.0555055 0.252423 0.5
168 1 0.0842398 0.241932 0.5
170 1 0.118851 0.247755 0.5
172 1 0.140832 0.25245 0.5
174 1 0.169504 0.239855 0.5
176 1 0.190871 0.22577 0.5
186 1 0.318912 0.245298 0.5
188 1 0.337261 0.223723 0.5
190 1 0.360647 0.252899 0.5
192 1 0.380707 0.246077 0.5
194 1 0.413852 0.247107 0.5
196 1 0.436632 0.253745 0.5
198 1 0.471553 0.244987 0.5
200 1 0.491294 0.255837 0.5
202 1 0.510553 0.259447 0.5
204 1 0.529135 0.247756 0.5
206 1 0.566439 0.256445 0.5
208 1 0.585198 0.253682 0.5
210 1 0.60867 0.24842 0.5
212 1 0.639938 0.239468 0.5
214 1 0.663479 0.255821 0.5
216 1 0.695138 0.250294 0.5
218 1 0.717532 0.261176 0.5
220 1 0.741128 0.243268 0.5
222 1 0.763325 0.243889 0.5
224 1 0.790367 0.260535 0.5
226 1 0.811811 0.257174 0.5
228 1 0.842365 0.260679 0.5
230 1 0.864348 0.246993 0.5
232 1 0.886974 0.256239 0.5
234 1 0.910431 0.249331 0.5
236 1 0.930947 0.249666 0.5
238 1 0.953129 0.245677 0.5
240 1 0.98684 0.258767 0.5
241 1 0.00108384 0.299676 0.5
243 1 0.0225803 0.308325 0.5
245 1 0.0477939 0.301108 0.5
247 1 0.0778662 0.294724 0.5
249 1 0.102015 0.288569 0.5
251 1 0.120405 0.293666 0.5
253 1 0.143689 0.298036 0.5
255 1 0.16338 0.282975 0.5
267 1 0.334076 0.285084 0.5
269 1 0.354117 0.297964 0.5
271 1 0.376845 0.288539 0.5
273 1 0.404511 0.318216 0.5
275 1 0.427491 0.303869 0.5
277 1 0.447245 0.294229 0.5
279 1 0.469793 0.307287 0.5
281 1 0.501398 0.301947 0.5
283 1 0.522761 0.299378 0.5
285 1 0.546157 0.281884 0.5
287 1 0.57244 0.30025 0.5
289 1 0.596582 0.303031 0.5
291 1 0.62969 0.289859 0.5
293 1 0.65022 0.297091 0.5
295 1 0.670871 0.307739 0.5
297 1 0.701326 0.296271 0.5
299 1 0.735549 0.287417 0.5
301 1 0.751165 0.322883 0.5
303 1 0.76842 0.289885 0.5
305 1 0.805593 0.311034 0.5
307 1 0.828632 0.294682 0.5
309 1 0.857094 0.29638 0.5
311 1 0.876286 0.296562 0.5
313 1 0.90176 0.28743 0.5
315 1 0.923936 0.29708 0.5
317 1 0.954347 0.310351 0.5
319 1 0.978157 0.31657 0.5
242 1 0.0104048 0.364375 0.5
244 1 0.0350247 0.342553 0.5
246 1 0.0679867 0.33773 0.5
248 1 0.0870667 0.345631 0.5
250 1 0.115057 0.348358 0.5
252 1 0.133054 0.348247 0.5
254 1 0.155092 0.343562 0.5
268 1 0.343669 0.338332 0.5
270 1 0.373308 0.334866 0.5
272 1 0.392359 0.352476 0.5
274 1 0.413515 0.359884 0.5
276 1 0.437096 0.359034 0.5
278 1 0.45942 0.348685 0.5
280 1 0.486191 0.337555 0.5
282 1 0.511866 0.343914 0.5
284 1 0.535716 0.35553 0.5
286 1 0.562496 0.359947 0.5
288 1 0.583747 0.339805 0.5
290 1 0.613885 0.333664 0.5
292 1 0.639108 0.341956 0.5
294 1 0.658047 0.345169 0.5
296 1 0.68726 0.334053 0.5
298 1 0.711128 0.338461 0.5
300 1 0.737692 0.356502 0.5
302 1 0.773317 0.339553 0.5
304 1 0.792361 0.3538 0.5
306 1 0.818594 0.345752 0.5
308 1 0.838483 0.348926 0.5
310 1 0.860516 0.341245 0.5
312 1 0.887945 0.33799 0.5
314 1 0.911916 0.331139 0.5
316 1 0.935076 0.348085 0.5
318 1 0.966198 0.357088 0.5
320 1 0.989642 0.354206 0.5
321 1 0.997435 0.403063 0.5
323 1 0.0225195 0.401219 0.5
325 1 0.0415293 0.389639 0.5
327 1 0.0745584 0.417109 0.5
329 1 0.106324 0.393255 0.5
331 1 0.128311 0.39015 0.5
333 1 0.152045 0.405206 0.5
347 1 0.352222 0.412653 0.5
349 1 0.357871 0.367826 0.5
351 1 0.378123 0.387538 0.5
353 1 0.415978 0.410057 0.5
355 1 0.434904 0.413831 0.5
357 1 0.453392 0.393103 0.5
359 1 0.472497 0.386758 0.5
361 1 0.498392 0.40228 0.5
363 1 0.529133 0.401595 0.5
365 1 0.549518 0.398888 0.5
367 1 0.585811 0.388574 0.5
369 1 0.610133 0.390514 0.5
371 1 0.630761 0.388224 0.5
373 1 0.651679 0.393015 0.5
375 1 0.675044 0.389103 0.5
377 1 0.69555 0.39851 0.5
379 1 0.732843 0.404406 0.5
381 1 0.75824 0.406599 0.5
383 1 0.779241 0.392688 0.5
385 1 0.800897 0.395324 0.5
387 1 0.82173 0.399146 0.5
389 1 0.853635 0.395509 0.5
391 1 0.88451 0.401975 0.5
393 1 0.90694 0.378039 0.5
395 1 0.924951 0.400035 0.5
397 1 0.954332 0.393782 0.5
399 1 0.976842 0.396294 0.5
322 1 0.0110302 0.439587 0.5
324 1 0.0425629 0.439309 0.5
326 1 0.065517 0.459457 0.5
328 1 0.0881958 0.452259 0.5
330 1 0.116008 0.459674 0.5
332 1 0.13488 0.439561 0.5
334 1 0.153327 0.464419 0.5
348 1 0.343036 0.458959 0.5
350 1 0.364836 0.442799 0.5
352 1 0.384231 0.451465 0.5
354 1 0.415792 0.452442 0.5
356 1 0.436109 0.458991 0.5
358 1 0.457501 0.447219 0.5
360 1 0.48326 0.433726 0.5
362 1 0.514553 0.43796 0.5
364 1 0.54447 0.439959 0.5
366 1 0.562525 0.473454 0.5
368 1 0.590705 0.457939 0.5
370 1 0.615263 0.45058 0.5
372 1 0.644964 0.447514 0.5
374 1 0.664199 0.43562 0.5
376 1 0.684101 0.439724 0.5
378 1 0.714522 0.451915 0.5
380 1 0.736466 0.450678 0.5
382 1 0.761057 0.456917 0.5
384 1 0.788447 0.436343 0.5
386 1 0.810837 0.443918 0.5
388 1 0.84073 0.443499 0.5
390 1 0.86704 0.433423 0.5
392 1 0.885525 0.460886 0.5
394 1 0.918001 0.447587 0.5
396 1 0.939854 0.436054 0.5
398 1 0.964659 0.433848 0.5
400 1 0.98141 0.467712 0.5
401 1 0.00510847 0.484241 0.5
403 1 0.0284481 0.493623 0.5
405 1 0.048444 0.488278 0.5
407 1 0.0793684 0.501454 0.5
409 1 0.101109 0.501024 0.5
411 1 0.12459 0.506862 0.5
413 1 0.14217 0.522555 0.5
415 1 0.166314 0.498211 0.5
427 1 0.338734 0.522134 0.5
429 1 0.355588 0.498643 0.5
431 1 0.375573 0.508866 0.5
433 1 0.401967 0.485366 0.5
435 1 0.421848 0.493461 0.5
437 1 0.450307 0.493464 0.5
439 1 0.468358 0.492628 0.5
441 1 0.495409 0.472896 0.5
443 1 0.528054 0.47231 0.5
445 1 0.546918 0.508498 0.5
447 1 0.579991 0.493603 0.5
449 1 0.606739 0.497079 0.5
451 1 0.625337 0.513288 0.5
453 1 0.646222 0.499119 0.5
455 1 0.68181 0.510231 0.5
457 1 0.704701 0.500201 0.5
459 1 0.728292 0.494573 0.5
461 1 0.751249 0.497164 0.5
463 1 0.780165 0.502054 0.5
465 1 0.801509 0.487684 0.5
467 1 0.824568 0.477984 0.5
469 1 0.847114 0.509398 0.5
471 1 0.867887 0.499937 0.5
473 1 0.903529 0.507064 0.5
475 1 0.924764 0.503727 0.5
477 1 0.945023 0.489487 0.5
479 1 0.980384 0.515328 0.5
402 1 0.0130726 0.529154 0.5
404 1 0.0417592 0.562479 0.5
406 1 0.0638124 0.557087 0.5
408 1 0.0946183 0.558859 0.5
410 1 0.113416 0.548608 0.5
412 1 0.133687 0.564647 0.5