ITEM: TIMESTEP
0
ITEM: NUMBER OF ATOMS
769
ITEM: BOX BOUNDS pp ss pp
0.0000000000000000e+00 5.1374269009840255e+01
-2.2245711031688635e-03 2.2247935602791809e+01
-3.2108918131150160e-01 3.2108918131150160e-01
ITEM: ATOMS id type xs ys zs
1 2 0 9.998e-05 0.5
3 2 0.025 9.998e-05 0.5
5 2 0.05 9.998e-05 0.5
7 2 0.075 9.998e-05 0.5
9 2 0.1 9.998e-05 0.5
11 2 0.125 9.998e-05 0.5
13 2 0.15 9.998e-05 0.5
15 2 0.175 9.998e-05 0.5
17 2 0.2 9.998e-05 0.5
19 2 0.225 9.998e-05 0.5
21 2 0.25 9.998e-05 0.5
23 2 0.275 9.998e-05 0.5
25 2 0.3 9.998e-05 0.5
27 2 0.325 9.998e-05 0.5
29 2 0.35 9.998e-05 0.5
31 2 0.375 9.998e-05 0.5
33 2 0.4 9.998e-05 0.5
35 2 0.425 9.998e-05 0.5
37 2 0.45 9.998e-05 0.5
39 2 0.475 9.998e-05 0.5
41 2 0.5 9.998e-05 0.5
43 2 0.525 9.998e-05 0.5
45 2 0.55 9.998e-05 0.5
47 2 0.575 9.998e-05 0.5
49 2 0.6 9.998e-05 0.5
51 2 0.625 9.998e-05 0.5
53 2 0.65 9.998e-05 0.5
55 2 0.675 9.998e-05 0.5
57 2 0.7 9.998e-05 0.5
59 2 0.725 9.998e-05 0.5
61 2 0.75 9.998e-05 0.5
63 2 0.775 9.998e-05 0.5
65 2 0.8 9.998e-05 0.5
67 2 0.825 9.998e-05 0.5
69 2 0.85 9.998e-05 0.5
71 2 0.875 9.998e-05 0.5
73 2 0.9 9.998e-05 0.5
75 2 0.925 9.998e-05 0.5
77 2 0.95 9.998e-05 0.5
79 2 0.975 9.998e-05 0.5
2 2 0.0125 0.05009 0.5
4 2 0.0375 0.05009 0.5
6 2 0.0625 0.05009 0.5
8 2 0.0875 0.05009 0.5
10 2 0.1125 0.05009 0.5
12 2 0.1375 0.05009 0.5
14 2 0.1625 0.05009 0.5
16 2 0.1875 0.05009 0.5
18 2 0.2125 0.05009 0.5
20 2 0.2375 0.05009 0.5
22 2 0.2625 0.05009 0.5
24 2 0.2875 0.05009 0.5
26 2 0.3125 0.05009 0.5
28 2 0.3375 0.05009 0.5
30 2 0.3625 0.05009 0.5
32 2 0.3875 0.05009 0.5
34 2 0.4125 0.05009 0.5
36 2 0.4375 0.05009 0.5
38 2 0.4625 0.05009 0.5
40 2 0.4875 0.05009 0.5
42 2 0.5125 0.05009 0.5
44 2 0.5375 0.05009 0.5
46 2 0.5625 0.05009 0.5
48 2 0.5875 0.05009 0.5
50 2 0.6125 0.05009 0.5
52 2 0.6375 0.05009 0.5
54 2 0.6625 0.05009 0.5
56 2 0.6875 0.05009 0.5
58 2 0.7125 0.05009 0.5
60 2 0.7375 0.05009 0.5
62 2 0.7625 0.05009 0.5
64 2 0.7875 0.05009 0.5
66 2 0.8125 0.05009 0.5
68 2 0.8375 0.05009 0.5
70 2 0.8625 0.05009 0.5
72 2 0.8875 0.05009 0.5
74 2 0.9125 0.05009 0.5
76 2 0.9375 0.05009 0.5
78 2 0.9625 0.05009 0.5
80 2 0.9875 0.05009 0.5
81 2 0 0.10008 0.5
83 2 0.025 0.10008 0.5
85 2 0.05 0.10008 0.5
87 2 0.075 0.10008 0.5
89 2 0.1 0.10008 0.5
91 2 0.125 0.10008 0.5
93 2 0.15 0.10008 0.5
95 2 0.175 0.10008 0.5
97 2 0.2 0.10008 0.5
99 2 0.225 0.10008 0.5
101 2 0.25 0.10008 0.5
103 2 0.275 0.10008 0.5
105 2 0.3 0.10008 0.5
107 2 0.325 0.10008 0.5
109 2 0.35 0.10008 0.5
111 2 0.375 0.10008 0.5
113 2 0.4 0.10008 0.5
115 2 0.425 0.10008 0.5
117 2 0.45 0.10008 0.5
119 2 0.475 0.10008 0.5
121 2 0.5 0.10008 0.5
123 2 0.525 0.10008 0.5
125 2 0.55 0.10008 0.5
127 2 0.575 0.10008 0.5
129 2 0.6 0.10008 0.5
131 2 0.625 0.10008 0.5
133 2 0.65 0.10008 0.5
135 2 0.675 0.10008 0.5
137 2 0.7 0.10008 0.5
139 2 0.725 0.10008 0.5
141 2 0.75 0.10008 0.5
143 2 0.775 0.10008 0.5
145 2 0.8 0.10008 0.5
147 2 0.825 0.10008 0.5
149 2 0.85 0.10008 0.5
151 2 0.875 0.10008 0.5
153 2 0.9 0.10008 0.5
155 2 0.925 0.10008 0.5
157 2 0.95 0.10008 0.5
159 2 0.975 0.10008 0.5
82 1 0.0125 0.15007 0.5
84 1 0.0375 0.15007 0.5
86 1 0.0625 0.15007 0.5
88 1 0.0875 0.15007 0.5
90 1 0.1125 0.15007 0.5
92 1 0.1375 0.15007 0.5
94 1 0.1625 0.15007 0.5
96 1 0.1875 0.15007 0.5
98 1 0.2125 0.15007 0.5
100 1 0.2375 0.15007 0.5
102 1 0.2625 0.15007 0.5
104 1 0.2875 0.15007 0.5
106 1 0.3125 0.15007 0.5
108 1 0.3375 0.15007 0.5
110 1 0.3625 0.15007 0.5
112 1 0.3875 0.15007 0.5
114 1 0.4125 0.15007 0.5
116 1 0.4375 0.15007 0.5
118 1 0.4625 0.15007 0.5
120 1 0.4875 0.15007 0.5
122 1 0.5125 0.15007 0.5
124 1 0.5375 0.15007 0.5
126 1 0.5625 0.15007 0.5
128 1 0.5875 0.15007 0.5
130 1 0.6125 0.15007 0.5
132 1 0.6375 0.15007 0.5
134 1 0.6625 0.15007 0.5
136 1 0.6875 0.15007 0.5
138 1 0.7125 0.15007 0.5
140 1 0.7375 0.15007 0.5
142 1 0.7625 0.15007 0.5
144 1 0.7875 0.15007 0.5
146 1 0.8125 0.15007 0.5
148 1 0.8375 0.15007 0.5
150 1 0.8625 0.15007 0.5
152 1 0.8875 0.15007 0.5
154 1 0.9125 0.15007 0.5
156 1 0.9375 0.15007 0.5
158 1 0.9625 0.15007 0.5
160 1 0.9875 0.15007 0.5
161 1 0 0.20006 0.5
163 1 0.025 0.20006 0.5
165 1 0.05 0.20006 0.5
167 1 0.075 0.20006 0.5
169 1 0.1 0.20006 0.5
171 1 0.125 0.20006 0.5
173 1 0.15 0.20006 0.5
175 1 0.175 0.20006 0.5
177 1 0.2 0.20006 0.5
179 1 0.225 0.20006 0.5
181 1 0.25 0.20006 0.5
183 1 0.275 0.20006 0.5
185 1 0.3 0.20006 0.5
187 1 0.325 0.20006 0.5
189 1 0.35 0.20006 0.5
191 1 0.375 0.20006 0.5
193 1 0.4 0.20006 0.5
195 1 0.425 0.20006 0.5
197 1 0.45 0.20006 0.5
199 1 0.475 0.20006 0.5
201 1 0.5 0.20006 0.5
203 1 0.525 0.20006 0.5
205 1 0.55 0.20006 0.5
207 1 0.575 0.20006 0.5
209 1 0.6 0.20006 0.5
211 1 0.625 0.20006 0.5
213 1 0.65 0.20006 0.5
215 1 0.675 0.20006 0.5
217 1 0.7 0.20006 0.5
219 1 0.725 0.20006 0.5
221 1 0.75 0.20006 0.5
223 1 0.775 0.20006 0.5
225 1 0.8 0.20006 0.5
227 1 0.825 0.20006 0.5
229 1 0.85 0.20006 0.5
231 1 0.875 0.20006 0.5
233 1 0.9 0.20006 0.5
235 1 0.925 0.20006 0.5
237 1 0.95 0.20006 0.5
239 1 0.975 0.20006 0.5
162 1 0.0125 0.25005 0.5
164 1 0.0375 0.25005 0.5
166 1 0.0625 0.25005 0.5
168 1 0.0875 0.25005 0.5
170 1 0.1125 0.25005 0.5
172 1 0.1375 0.25005 0.5
174 1 0.1625 0.25005 0.5
176 1 0.1875 0.25005 0.5
186 1 0.3125 0.25005 0.5
188 1 0.3375 0.25005 0.5
190 1 0.3625 0.25005 0.5
192 1 0.3875 0.25005 0.5
194 1 0.4125 0.25005 0.5
196 1 0.4375 0.25005 0.5
198 1 0.4625 0.25005 0.5
200 1 0.4875 0.25005 0.5
202 1 0.5125 0.25005 0.5
204 1 0.5375 0.25005 0.5
206 1 0.5625 0.25005 0.5
208 1 0.5875 0.25005 0.5
210 1 0.6125 0.25005 0.5
212 1 0.6375 0.25005 0.5
214 1 0.6625 0.25005 0.5
216 1 0.6875 0.25005 0.5
218 1 0.7125 0.25005 0.5
220 1 0.7375 0.25005 0.5
222 1 0.7625 0.25005 0.5
224 1 0.7875 0.25005 0.5
226 1 0.8125 0.25005 0.5
228 1 0.8375 0.25005 0.5
230 1 0.8625 0.25005 0.5
232 1 0.8875 0.25005 0.5
234 1 0.9125 0.25005 0.5
236 1 0.9375 0.25005 0.5
238 1 0.9625 0.25005 0.5
240 1 0.9875 0.25005 0.5
241 1 0 0.30004 0.5
243 1 0.025 0.30004 0.5
245 1 0.05 0.30004 0.5
247 1 0.075 0.30004 0.5
249 1 0.1 0.30004 0.5
251 1 0.125 0.30004 0.5
253 1 0.15 0.30004 0.5
255 1 0.175 0.30004 0.5
267 1 0.325 0.30004 0.5
269 1 0.35 0.30004 0.5
271 1 0.375 0.30004 0.5
273 1 0.4 0.30004 0.5
275 1 0.425 0.30004 0.5
277 1 0.45 0.30004 0.5
279 1 0.475 0.30004 0.5
281 1 0.5 0.30004 0.5
283 1 0.525 0.30004 0.5
285 1 0.55 0.30004 0.5
287 1 0.575 0.30004 0.5
289 1 0.6 0.30004 0.5
291 1 0.625 0.30004 0.5
293 1 0.65 0.30004 0.5
295 1 0.675 0.30004 0.5
297 1 0.7 0.30004 0.5
299 1 0.725 0.30004 0.5
301 1 0.75 0.30004 0.5
303 1 0.775 0.30004 0.5
305 1 0.8 0.30004 0.5
307 1 0.825 0.30004 0.5
309 1 0.85 0.30004 0.5
311 1 0.875 0.30004 0.5
313 1 0.9 0.30004 0.5
315 1 0.925 0.30004 0.5
317 1 0.95 0.30004 0.5
319 1 0.975 0.30004 0.5
242 1 0.0125 0.35003 0.5
244 1 0.0375 0.35003 0.5
246 1 0.0625 0.35003 0.5
248 1 0.0875 0.35003 0.5
250 1 0.1125 0.35003 0.5
252 1 0.1375 0.35003 0.5
254 1 0.1625 0.35003 0.5
268 1 0.3375 0.35003 0.5
270 1 0.3625 0.35003 0.5
272 1 0.3875 0.35003 0.5
274 1 0.4125 0.35003 0.5
276 1 0.4375 0.35003 0.5
278 1 0.4625 0.35003 0.5
280 1 0.4875 0.35003 0.5
282 1 0.5125 0.35003 0.5
284 1 0.5375 0.35003 0.5
286 1 0.5625 0.35003 0.5
288 1 0.5875 0.35003 0.5
290 1 0.6125 0.35003 0.5
292 1 0.6375 0.35003 0.5
294 1 0.6625 0.35003 0.5
296 1 0.6875 0.35003 0.5
298 1 0.7125 0.35003 0.5
300 1 0.7375 0.35003 0.5
302 1 0.7625 0.35003 0.5
304 1 0.7875 0.35003 0.5
306 1 0.8125 0.35003 0.5
308 1 0.8375 0.35003 0.5
310 1 0.8625 0.35003 0.5
312 1 0.8875 0.35003 0.5
314 1 0.9125 0.35003 0.5
316 1 0.9375 0.35003 0.5
318 1 0.9625 0.35003 0.5
320 1 0.9875 0.35003 0.5
321 1 0 0.40002 0.5
323 1 0.025 0.40002 0.5
325 1 0.05 0.40002 0.5
327 1 0.075 0.40002 0.5
329 1 0.1 0.40002 0.5
331 1 0.125 0.40002 0.5
333 1 0.15 0.40002 0.5
347 1 0.325 0.40002 0.5
349 1 0.35 0.40002 0.5
351 1 0.375 0.40002 0.5
353 1 0.4 0.40002 0.5
355 1 0.425 0.40002 0.5
357 1 0.45 0.40002 0.5
359 1 0.475 0.40002 0.5
361 1 0.5 0.40002 0.5
363 1 0.525 0.40002 0.5
365 1 0.55 0.40002 0.5
367 1 0.575 0.40002 0.5
369 1 0.6 0.40002 0.5
371 1 0.625 0.40002 0.5
373 1 0.65 0.40002 0.5
375 1 0.675 0.40002 0.5
377 1 0.7 0.40002 0.5
379 1 0.725 0.40002 0.5
381 1 0.75 0.40002 0.5
383 1 0.775 0.40002 0.5
385 1 0.8 0.40002 0.5
387 1 0.825 0.40002 0.5
389 1 0.85 0.40002 0.5
391 1 0.875 0.40002 0.5
393 1 0.9 0.40002 0.5
395 1 0.925 0.40002 0.5
397 1 0.95 0.40002 0.5
399 1 0.975 0.40002 0.5
322 1 0.0125 0.45001 0.5
324 1 0.0375 0.45001 0.5
326 1 0.0625 0.45001 0.5
328 1 0.0875 0.45001 0.5
330 1 0.1125 0.45001 0.5
332 1 0.1375 0.45001 0.5
334 1 0.1625 0.45001 0.5
348 1 0.3375 0.45001 0.5
350 1 0.3625 0.45001 0.5
352 1 0.3875 0.45001 0.5
354 1 0.4125 0.45001 0.5
356 1 0.4375 0.45001 0.5
358 1 0.4625 0.45001 0.5
360 1 0.4875 0.45001 0.5
362 1 0.5125 0.45001 0.5
364 1 0.5375 0.45001 0.5
366 1 0.5625 0.45001 0.5
368 1 0.5875 0.45001 0.5
370 1 0.6125 0.45001 0.5
372 1 0.6375 0.45001 0.5
374 1 0.6625 0.45001 0.5
376 1 0.6875 0.45001 0.5
378 1 0.7125 0.45001 0.5
380 1 0.7375 0.45001 0.5
382 1 0.7625 0.45001 0.5
384 1 0.7875 0.45001 0.5
386 1 0.8125 0.45001 0.5
388 1 0.8375 0.45001 0.5
390 1 0.8625 0.45001 0.5
392 1 0.8875 0.45001 0.5
394 1 0.9125 0.45001 0.5
396 1 0.9375 0.45001 0.5
398 1 0.9625 0.45001 0.5
400 1 0.9875 0.45001 0.5
401 1 0 0.5 0.5
403 1 0.025 0.5 0.5
405 1 0.05 0.5 0.5
407 1 0.075 0.5 0.5
409 1 0.1 0.5 0.5
411 1 0.125 0.5 0.5
413 1 0.15 0.5 0.5
415 1 0.175 0.5 0.5
427 1 0.325 0.5 0.5
429 1 0.35 0.5 0.5
431 1 0.375 0.5 0.5
433 1 0.4 0.5 0.5
435 1 0.425 0.5 0.5
437 1 0.45 0.5 0.5
439 1 0.475 0.5 0.5
441 1 0.5 0.5 0.5
443 1 0.525 0.5 0.5
445 1 0.55 0.5 0.5
447 1 0.575 0.5 0.5
449 1 0.6 0.5 0.5
451 1 0.625 0.5 0.5
453 1 0.65 0.5 0.5
455 1 0.675 0.5 0.5
457 1 0.7 0.5 0.5
459 1 0.725 0.5 0.5
461 1 0.75 0.5 0.5
463 1 0.775 0.5 0.5
465 1 0.8 0.5 0.5
467 1 0.825 0.5 0.5
469 1 0.85 0.5 0.5
471 1 0.875 0.5 0.5
473 1 0.9 0.5 0.5
475 1 0.925 0.5 0.5
477 1 0.95 0.5 0.5
479 1 0.975 0.5 0.5
402 1 0.0125 0.54999 0.5
404 1 0.0375 0.54999 0.5
406 1 0.0625 0.54999 0.5
408 1 0.0875 0.54999 0.5
410 1 0.1125 0.54999 0.5
412 1 0.1375 0.54999 0.5
414 1 0.1625 0.54999 0.5
416 1 0.1875 0.54999 0.5
426 1 0.3125 0.54999 0.5
428 1 0.3375 0.54999 0.5
430 1 0.3625 0.54999 0.5
432 1 0.3875 0.54999 0.5
434 1 0.4125 0.54999 0.5
436 1 0.4375 0.54999 0.5
446 1 0.5625 0.54999 0.5
448 1 0.5875 0.54999 0.5
450 1 0.6125 0.54999 0.5
452 1 0.6375 0.54999 0.5
454 1 0.6625 0.54999 0.5
456 1 0.6875 0.54999 0.5
458 1 0.7125 0.54999 0.5
460 1 0.7375 0.54999 0.5
462 1 0.7625 0.54999 0.5
464 1 0.7875 0.54999 0.5
466 1 0.8125 0.54999 0.5
468 1 0.8375 0.54999 0.5
470 1 0.8625 0.54999 0.5
472 1 0.8875 0.54999 0.5
474 1 0.9125 0.54999 0.5
476 1 0.9375 0.54999 0.5
478 1 0.9625 0.54999 0.5
480 1 0.9875 0.54999 0.5
481 1 0 0.59998 0.5
483 1 0.025 0.59998 0.5
485 1 0.05 0.59998 0.5
487 1 0.075 0.59998 0.5
489 1 0.1 0.59998 0.5
491 1 0.125 0.59998 0.5
493 1 0.15 0.59998 0.5
495 1 0.175 0.59998 0.5
497 1 0.2 0.59998 0.5
499 1 0.225 0.59998 0.5
501 1 0.25 0.59998 0.5
503 1 0.275 0.59998 0.5
505 1 0.3 0.59998 0.5
507 1 0.325 0.59998 0.5
509 1 0.35 0.59998 0.5
511 1 0.375 0.59998 0.5
513 1 0.4 0.59998 0.5
515 1 0.425 0.59998 0.5
527 1 0.575 0.59998 0.5
529 1 0.6 0.59998 0.5
531 1 0.625 0.59998 0.5
533 1 0.65 0.59998 0.5
535 1 0.675 0.59998 0.5
537 1 0.7 0.59998 0.5
539 1 0.725 0.59998 0.5
541 1 0.75 0.59998 0.5
543 1 0.775 0.59998 0.5
545 1 0.8 0.59998 0.5
547 1 0.825 0.59998 0.5
549 1 0.85 0.59998 0.5
551 1 0.875 0.59998 0.5
553 1 0.9 0.59998 0.5
555 1 0.925 0.59998 0.5
557 1 0.95 0.59998 0.5
559 1 0.975 0.59998 0.5
482 1 0.0125 0.64997 0.5
484 1 0.0375 0.64997 0.5
486 1 0.0625 0.64997 0.5
488 1 0.0875 0.64997 0.5
490 1 0.1125 0.64997 0.5
492 1 0.1375 0.64997 0.5
494 1 0.1625 0.64997 0.5
496 1 0.1875 0.64997 0.5
498 1 0.2125 0.64997 0.5
500 1 0.2375 0.64997 0.5
502 1 0.2625 0.64997 0.5
504 1 0.2875 0.64997 0.5
506 1 0.3125 0.64997 0.5
508 1 0.3375 0.64997 0.5
510 1 0.3625 0.64997 0.5
512 1 0.3875 0.64997 0.5
514 1 0.4125 0.64997 0.5
528 1 0.5875 0.64997 0.5
530 1 0.6125 0.64997 0.5
532 1 0.6375 0.64997 0.5
534 1 0.6625 0.64997 0.5
536 1 0.6875 0.64997 0.5
538 1 0.7125 0.64997 0.5
540 1 0.7375 0.64997 0.5
542 1 0.7625 0.64997 0.5
544 1 0.7875 0.64997 0.5
546 1 0.8125 0.64997 0.5
548 1 0.8375 0.64997 0.5
550 1 0.8625 0.64997 0.5
552 1 0.8875 0.64997 0.5
554 1 0.9125 0.64997 0.5
556 1 0.9375 0.64997 0.5
558 1 0.9625 0.64997 0.5
560 1 0.9875 0.64997 0.5
561 1 0 0.69996 0.5
563 1 0.025 0.69996 0.5
565 1 0.05 0.69996 0.5
567 1 0.075 0.69996 0.5
569 1 0.1 0.69996 0.5
571 1 0.125 0.69996 0.5
573 1 0.15 0.69996 0.5
575 1 0.175 0.69996 0.5
577 1 0.2 0.69996 0.5
579 1 0.225 0.69996 0.5
581 1 0.25 0.69996 0.5
583 1 0.275 0.69996 0.5
585 1 0.3 0.69996 0.5
587 1 0.325 0.69996 0.5
589 1 0.35 0.69996 0.5
591 1 0.375 0.69996 0.5
593 1 0.4 0.69996 0.5
609 1 0.6 0.69996 0.5
611 1 0.625 0.69996 0.5
613 1 0.65 0.69996 0.5
615 1 0.675 0.69996 0.5
617 1 0.7 0.69996 0.5
619 1 0.725 0.69996 0.5
621 1 0.75 0.69996 0.5
623 1 0.775 0.69996 0.5
625 1 0.8 0.69996 0.5
627 1 0.825 0.69996 0.5
629 1 0.85 0.69996 0.5
631 1 0.875 0.69996 0.5
633 1 0.9 0.69996 0.5
635 1 0.925 0.69996 0.5
637 1 0.95 0.69996 0.5
639 1 0.975 0.69996 0.5
562 1 0.0125 0.74995 0.5
564 1 0.0375 0.74995 0.5
566 1 0.0625 0.74995 0.5
568 1 0.0875 0.74995 0.5
570 1 0.1125 0.74995 0.5
572 1 0.1375 0.74995 0.5
574 1 0.1625 0.74995 0.5
576 1 0.1875 0.74995 0.5
578 1 0.2125 0.74995 0.5
580 1 0.2375 0.74995 0.5
582 1 0.2625 0.74995 0.5
584 1 0.2875 0.74995 0.5
586 1 0.3125 0.74995 0.5
588 1 0.3375 0.74995 0.5
590 1 0.3625 0.74995 0.5
592 1 0.3875 0.74995 0.5
594 1 0.4125 0.74995 0.5
608 1 0.5875 0.74995 0.5
610 1 0.6125 0.74995 0.5
612 1 0.6375 0.74995 0.5
614 1 0.6625 0.74995 0.5
616 1 0.6875 0.74995 0.5
618 1 0.7125 0.74995 0.5
620 1 0.7375 0.74995 0.5
622 1 0.7625 0.74995 0.5
624 1 0.7875 0.74995 0.5
626 1 0.8125 0.74995 0.5
628 1 0.8375 0.74995 0.5
630 1 0.8625 0.74995 0.5
632 1 0.8875 0.74995 0.5
634 1 0.9125 0.74995 0.5
636 1 0.9375 0.74995 0.5
638 1 0.9625 0.74995 0.5
640 1 0.9875 0.74995 0.5
641 1 0 0.79994 0.5
643 1 0.025 0.79994 0.5
645 1 0.05 0.79994 0.5
647 1 0.075 0.79994 0.5
649 1 0.1 0.79994 0.5
651 1 0.125 0.79994 0.5
653 1 0.15 0.79994 0.5
655 1 0.175 0.79994 0.5
657 1 0.2 0.79994 0.5
659 1 0.225 0.79994 0.5
661 1 0.25 0.79994 0.5
663 1 0.275 0.79994 0.5
665 1 0.3 0.79994 0.5
667 1 0.325 0.79994 0.5
669 1 0.35 0.79994 0.5
671 1 0.375 0.79994 0.5
673 1 0.4 0.79994 0.5
675 1 0.425 0.79994 0.5
687 1 0.575 0.79994 0.5
689 1 0.6 0.79994 0.5
691 1 0.625 0.79994 0.5
693 1 0.65 0.79994 0.5
695 1 0.675 0.79994 0.5
697 1 0.7 0.79994 0.5
699 1 0.725 0.79994 0.5
701 1 0.75 0.79994 0.5
703 1 0.775 0.79994 0.5
705 1 0.8 0.79994 0.5
707 1 0.825 0.79994 0.5
709 1 0.85 0.79994 0.5
711 1 0.875 0.79994 0.5
713 1 0.9 0.79994 0.5
715 1 0.925 0.79994 0.5
717 1 0.95 0.79994 0.5
719 1 0.975 0.79994 0.5
642 1 0.0125 0.84993 0.5
644 1 0.0375 0.84993 0.5
646 1 0.0625 0.84993 0.5
648 1 0.0875 0.84993 0.5
650 1 0.1125 0.84993 0.5
652 1 0.1375 0.84993 0.5
654 1 0.1625 0.84993 0.5
656 1 0.1875 0.84993 0.5
658 1 0.2125 0.84993 0.5
660 1 0.2375 0.84993 0.5
662 1 0.2625 0.84993 0.5
664 1 0.2875 0.84993 0.5
666 1 0.3125 0.84993 0.5
668 1 0.3375 0.84993 0.5
670 1 0.3625 0.84993 0.5
672 1 0.3875 0.84993 0.5
674 1 0.4125 0.84993 0.5
676 1 0.4375 0.84993 0.5
678 1 0.4625 0.84993 0.5
684 1 0.5375 0.84993 0.5
686 1 0.5625 0.84993 0.5
688 1 0.5875 0.84993 0.5
690 1 0.6125 0.84993 0.5
692 1 0.6375 0.84993 0.5
694 1 0.6625 0.84993 0.5
696 1 0.6875 0.84993 0.5
698 1 0.7125 0.84993 0.5
700 1 0.7375 0.84993 0.5
702 1 0.7625 0.84993 0.5
704 1 0.7875 0.84993 0.5
706 1 0.8125 0.84993 0.5
708 1 0.8375 0.84993 0.5
710 1 0.8625 0.84993 0.5
712 1 0.8875 0.84993 0.5
714 1 0.9125 0.84993 0.5
716 1 0.9375 0.84993 0.5
718 1 0.9625 0.84993 0.5
720 1 0.9875 0.84993 0.5
721 3 0 0.89992 0.5
723 3 0.025 0.89992 0.5
725 3 0.05 0.89992 0.5
727 3 0.075 0.89992 0.5
729 3 0.1 0.89992 0.5
731 3 0.125 0.89992 0.5
733 3 0.15 0.89992 0.5
735 3 0.175 0.89992 0.5
737 3 0.2 0.89992 0.5
739 3 0.225 0.89992 0.5
741 3 0.25 0.89992 0.5
743 3 0.275 0.89992 0.5
745 3 0.3 0.89992 0.5
747 3 0.325 0.89992 0.5
749 3 0.35 0.89992 0.5
751 3 0.375 0.89992 0.5
753 3 0.4 0.89992 0.5
755 3 0.425 0.89992 0.5
757 3 0.45 0.89992 0.5
759 3 0.475 0.89992 0.5
761 3 0.5 0.89992 0.5
763 3 0.525 0.89992 0.5
765 3 0.55 0.89992 0.5
767 3 0.575 0.89992 0.5
769 3 0.6 0.89992 0.5
683 3 0.625 0.89992 0.5
681 3 0.65 0.89992 0.5
679 3 0.675 0.89992 0.5
607 3 0.7 0.89992 0.5
605 3 0.725 0.89992 0.5
603 3 0.75 0.89992 0.5
601 3 0.775 0.89992 0.5
599 3 0.8 0.89992 0.5
597 3 0.825 0.89992 0.5
595 3 0.85 0.89992 0.5
525 3 0.875 0.89992 0.5
523 3 0.9 0.89992 0.5
521 3 0.925 0.89992 0.5
519 3 0.95 0.89992 0.5
517 3 0.975 0.89992 0.5
722 3 0.0125 0.94991 0.5
724 3 0.0375 0.94991 0.5
726 3 0.0625 0.94991 0.5
728 3 0.0875 0.94991 0.5
730 3 0.1125 0.94991 0.5
732 3 0.1375 0.94991 0.5
734 3 0.1625 0.94991 0.5
736 3 0.1875 0.94991 0.5
738 3 0.2125 0.94991 0.5
740 3 0.2375 0.94991 0.5
742 3 0.2625 0.94991 0.5
744 3 0.2875 0.94991 0.5
746 3 0.3125 0.94991 0.5
748 3 0.3375 0.94991 0.5
750 3 0.3625 0.94991 0.5
752 3 0.3875 0.94991 0.5
754 3 0.4125 0.94991 0.5
756 3 0.4375 0.94991 0.5
758 3 0.4625 0.94991 0.5
760 3 0.4875 0.94991 0.5
762 3 0.5125 0.94991 0.5
764 3 0.5375 0.94991 0.5
766 3 0.5625 0.94991 0.5
768 3 0.5875 0.94991 0.5
685 3 0.6125 0.94991 0.5
682 3 0.6375 0.94991 0.5
680 3 0.6625 0.94991 0.5
677 3 0.6875 0.94991 0.5
606 3 0.7125 0.94991 0.5
604 3 0.7375 0.94991 0.5
602 3 0.7625 0.94991 0.5
600 3 0.7875 0.94991 0.5
598 3 0.8125 0.94991 0.5
596 3 0.8375 0.94991 0.5
526 3 0.8625 0.94991 0.5
524 3 0.8875 0.94991 0.5
522 3 0.9125 0.94991 0.5
520 3 0.9375 0.94991 0.5
518 3 0.9625 0.94991 0.5
516 3 0.9875 0.94991 0.5
444 3 0 0.9999 0.5
442 3 0.025 0.9999 0.5
440 3 0.05 0.9999 0.5
438 3 0.075 0.9999 0.5
425 3 0.1 0.9999 0.5
424 3 0.125 0.9999 0.5
423 3 0.15 0.9999 0.5
422 3 0.175 0.9999 0.5
421 3 0.2 0.9999 0.5
420 3 0.225 0.9999 0.5
419 3 0.25 0.9999 0.5
418 3 0.275 0.9999 0.5
417 3 0.3 0.9999 0.5
346 3 0.325 0.9999 0.5
345 3 0.35 0.9999 0.5
344 3 0.375 0.9999 0.5
343 3 0.4 0.9999 0.5
342 3 0.425 0.9999 0.5
341 3 0.45 0.9999 0.5
340 3 0.475 0.9999 0.5
339 3 0.5 0.9999 0.5
338 3 0.525 0.9999 0.5
337 3 0.55 0.9999 0.5
336 3 0.575 0.9999 0.5
335 3 0.6 0.9999 0.5
266 3 0.625 0.9999 0.5
265 3 0.65 0.9999 0.5
264 3 0.675 0.9999 0.5
263 3 0.7 0.9999 0.5
262 3 0.725 0.9999 0.5
261 3 0.75 0.9999 0.5
260 3 0.775 0.9999 0.5
259 3 0.8 0.9999 0.5
258 3 0.825 0.9999 0.5
257 3 0.85 0.9999 0.5
256 3 0.875 0.9999 0.5
184 3 0.9 0.9999 0.5
182 3 0.925 0.9999 0.5
180 3 0.95 0.9999 0.5
178 3 0.975 0.9999 0.5
ITEM: TIMESTEP
100
ITEM: NUMBER OF ATOMS
769
ITEM: BOX BOUNDS pp ss pp
0.0000000000000000e+00 5.1374269009840255e+01
-2.2245711031688635e-03 2.2307480381238580e+01
-3.2108918131150160e-01 3.2108918131150160e-01
ITEM: ATOMS id type xs ys zs
1 2 0 9.97132e-05 0.5
3 2 0.025 9.97132e-05 0.5
5 2 0.05 9.97132e-05 0.5
7 2 0.075 9.97132e-05 0.5
9 2 0.1 9.97132e-05 0.5
11 2 0.125 9.97132e-05 0.5
13 2 0.15 9.97132e-05 0.5
15 2 0.175 9.97132e-05 0.5
17 2 0.2 9.97132e-05 0.5
19 2 0.225 9.97132e-05 0.5
21 2 0.25 9.97132e-05 0.5
23 2 0.275 9.97132e-05 0.5
25 2 0.3 9.97132e-05 0.5
27 2 0.325 9.97132e-05 0.5
29 2 0.35 9.97132e-05 0.5
31 2 0.375 9.97132e-05 0.5
33 2 0.4 9.97132e-05 0.5
35 2 0.425 9.97132e-05 0.5
37 2 0.45 9.97132e-05 0.5
39 2 0.475 9.97132e-05 0.5
41 2 0.5 9.97132e-05 0.5
43 2 0.525 9.97132e-05 0.5
45 2 0.55 9.97132e-05 0.5
47 2 0.575 9.97132e-05 0.5
49 2 0.6 9.97132e-05 0.5
51 2 0.625 9.97132e-05 0.5
53 2 0.65 9.97132e-05 0.5
55 2 0.675 9.97132e-05 0.5
57 2 0.7 9.97132e-05 0.5
59 2 0.725 9.97132e-05 0.5
61 2 0.75 9.97132e-05 0.5
63 2 0.775 9.97132e-05 0.5
65 2 0.8 9.97132e-05 0.5
67 2 0.825 9.97132e-05 0.5
69 2 0.85 9.97132e-05 0.5
71 2 0.875 9.97132e-05 0.5
73 2 0.9 9.97132e-05 0.5
75 2 0.925 9.97132e-05 0.5
77 2 0.95 9.97132e-05 0.5
79 2 0.975 9.97132e-05 0.5
2 2 0.0125 0.0499563 0.5
4 2 0.0375 0.0499563 0.5
6 2 0.0625 0.0499563 0.5
8 2 0.0875 0.0499563 0.5
10 2 0.1125 0.0499563 0.5
12 2 0.1375 0.0499563 0.5
14 2 0.1625 0.0499563 0.5
16 2 0.1875 0.0499563 0.5
18 2 0.2125 0.0499563 0.5
20 2 0.2375 0.0499563 0.5
22 2 0.2625 0.0499563 0.5
24 2 0.2875 0.0499563 0.5
26 2 0.3125 0.0499563 0.5
28 2 0.3375 0.0499563 0.5
30 2 0.3625 0.0499563 0.5
32 2 0.3875 0.0499563 0.5
34 2 0.4125 0.0499563 0.5
36 2 0.4375 0.0499563 0.5
38 2 0.4625 0.0499563 0.5
40 2 0.4875 0.0499563 0.5
42 2 0.5125 0.0499563 0.5
44 2 0.5375 0.0499563 0.5
46 2 0.5625 0.0499563 0.5
48 2 0.5875 0.0499563 0.5
50 2 0.6125 0.0499563 0.5
52 2 0.6375 0.0499563 0.5
54 2 0.6625 0.0499563 0.5
56 2 0.6875 0.0499563 0.5
58 2 0.7125 0.0499563 0.5
60 2 0.7375 0.0499563 0.5
62 2 0.7625 0.0499563 0.5
64 2 0.7875 0.0499563 0.5
66 2 0.8125 0.0499563 0.5
68 2 0.8375 0.0499563 0.5
70 2 0.8625 0.0499563 0.5
72 2 0.8875 0.0499563 0.5
74 2 0.9125 0.0499563 0.5
76 2 0.9375 0.0499563 0.5
78 2 0.9625 0.0499563 0.5
80 2 0.9875 0.0499563 0.5
81 2 0 0.0998129 0.5
83 2 0.025 0.0998129 0.5
85 2 0.05 0.0998129 0.5
87 2 0.075 0.0998129 0.5
89 2 0.1 0.0998129 0.5
91 2 0.125 0.0998129 0.5
93 2 0.15 0.0998129 0.5
95 2 0.175 0.0998129 0.5
97 2 0.2 0.0998129 0.5
99 2 0.225 0.0998129 0.5
101 2 0.25 0.0998129 0.5
103 2 0.275 0.0998129 0.5
105 2 0.3 0.0998129 0.5
107 2 0.325 0.0998129 0.5
109 2 0.35 0.0998129 0.5
111 2 0.375 0.0998129 0.5
113 2 0.4 0.0998129 0.5
115 2 0.425 0.0998129 0.5
117 2 0.45 0.0998129 0.5
119 2 0.475 0.0998129 0.5
121 2 0.5 0.0998129 0.5
123 2 0.525 0.0998129 0.5
125 2 0.55 0.0998129 0.5
127 2 0.575 0.0998129 0.5
129 2 0.6 0.0998129 0.5
131 2 0.625 0.0998129 0.5
133 2 0.65 0.0998129 0.5
135 2 0.675 0.0998129 0.5
137 2 0.7 0.0998129 0.5
139 2 0.725 0.0998129 0.5
141 2 0.75 0.0998129 0.5
143 2 0.775 0.0998129 0.5
145 2 0.8 0.0998129 0.5
147 2 0.825 0.0998129 0.5
149 2 0.85 0.0998129 0.5
151 2 0.875 0.0998129 0.5
153 2 0.9 0.0998129 0.5
155 2 0.925 0.0998129 0.5
157 2 0.95 0.0998129 0.5
159 2 0.975 0.0998129 0.5
82 1 0.0160837 0.141487 0.5
84 1 0.0416803 0.141446 0.5
86 1 0.0627423 0.162154 0.5
88 1 0.0812632 0.143123 0.5
90 1 0.110022 0.168808 0.5
92 1 0.138511 0.137804 0.5
94 1 0.163194 0.137476 0.5
96 1 0.182306 0.142904 0.5
98 1 0.208878 0.136601 0.5
100 1 0.236803 0.133307 0.5
102 1 0.259251 0.135924 0.5
104 1 0.285973 0.135261 0.5
106 1 0.313914 0.142753 0.5
108 1 0.336565 0.136122 0.5
110 1 0.359923 0.164406 0.5
112 1 0.39435 0.159539 0.5
114 1 0.412785 0.147174 0.5
116 1 0.439091 0.159921 0.5
118 1 0.458266 0.148587 0.5
120 1 0.484128 0.142592 0.5
122 1 0.516102 0.142559 0.5
124 1 0.537119 0.141338 0.5
126 1 0.566906 0.160494 0.5
128 1 0.590546 0.154221 0.5
130 1 0.614358 0.142171 0.5
132 1 0.637116 0.166115 0.5
134 1 0.663726 0.146103 0.5
136 1 0.696811 0.155376 0.5
138 1 0.722103 0.146529 0.5
140 1 0.744927 0.147985 0.5
142 1 0.764725 0.167498 0.5
144 1 0.783011 0.16279 0.5
146 1 0.806065 0.142423 0.5
148 1 0.844675 0.143404 0.5
150 1 0.867895 0.145333 0.5
152 1 0.886433 0.162262 0.5
154 1 0.909213 0.14045 0.5
156 1 0.935347 0.139071 0.5
158 1 0.95765 0.146555 0.5
160 1 0.995996 0.147889 0.5
161 1 0.00192228 0.206738 0.5
163 1 0.0219495 0.211656 0.5
165 1 0.0425852 0.210287 0.5
167 1 0.0717591 0.199667 0.5
169 1 0.0907106 0.186294 0.5
171 1 0.134107 0.209595 0.5
173 1 0.153392 0.186598 0.5
175 1 0.176652 0.192404 0.5
177 1 0.197107 0.181177 0.5
179 1 0.221037 0.185508 0.5
181 1 0.242092 0.175845 0.5
183 1 0.272604 0.171095 0.5
185 1 0.294141 0.188247 0.5
187 1 0.3227 0.191103 0.5
189 1 0.358212 0.208268 0.5
191 1 0.374995 0.196988 0.5
193 1 0.402376 0.213427 0.5
195 1 0.418919 0.189402 0.5
197 1 0.456297 0.215268 0.5
199 1 0.476066 0.190086 0.5
201 1 0.500973 0.209498 0.5
203 1 0.519846 0.196437 0.5
205 1 0.544867 0.189259 0.5
207 1 0.577639 0.197678 0.5
209 1 0.605297 0.189918 0.5
211 1 0.624174 0.210329 0.5
213 1 0.655553 0.195722 0.5
215 1 0.677606 0.223607 0.5
217 1 0.696771 0.200056 0.5
219 1 0.728728 0.206505 0.5
221 1 0.747114 0.194452 0.5
223 1 0.777981 0.215885 0.5
225 1 0.802496 0.217725 0.5
227 1 0.835801 0.18372 0.5
229 1 0.857303 0.18379 0.5
231 1 0.881789 0.205947 0.5
233 1 0.901194 0.206042 0.5
235 1 0.927038 0.192952 0.5
237 1 0.949241 0.200069 0.5
239 1 0.985369 0.184676 0.5
162 1 0.0138145 0.257179 0.5
164 1 0.0349401 0.254844 0.5
166 1 0.0556763 0.252093 0.5
168 1 0.0852515 0.241397 0.5
170 1 0.117596 0.246545 0.5
172 1 0.141627 0.251875 0.5
174 1 0.170376 0.239758 0.5
176 1 0.190447 0.226305 0.5
186 1 0.317651 0.243223 0.5
188 1 0.336013 0.224616 0.5
190 1 0.359724 0.251571 0.5
192 1 0.382019 0.246035 0.5
194 1 0.413301 0.248316 0.5
196 1 0.436062 0.253356 0.5
198 1 0.470573 0.244328 0.5
200 1 0.489801 0.255658 0.5
202 1 0.511215 0.259605 0.5
204 1 0.529095 0.245815 0.5
206 1 0.565607 0.257318 0.5
208 1 0.586949 0.251986 0.5
210 1 0.608636 0.249501 0.5
212 1 0.638818 0.238888 0.5
214 1 0.663735 0.254071 0.5
216 1 0.693299 0.248761 0.5
218 1 0.718217 0.261645 0.5
220 1 0.741634 0.239449 0.5
222 1 0.764348 0.246513 0.5
224 1 0.791817 0.257389 0.5
226 1 0.811395 0.256766 0.5
228 1 0.843302 0.260576 0.5
230 1 0.862304 0.245385 0.5
232 1 0.886678 0.259487 0.5
234 1 0.911021 0.247564 0.5
236 1 0.930608 0.250818 0.5
238 1 0.955129 0.246029 0.5
240 1 0.985744 0.26028 0.5
241 1 0.00191405 0.297985 0.5
243 1 0.0219947 0.308989 0.5
245 1 0.047683 0.29999 0.5
247 1 0.076158 0.29685 0.5
249 1 0.102276 0.288159 0.5
251 1 0.1212 0.290014 0.5
253 1 0.144797 0.296044 0.5
255 1 0.163562 0.284478 0.5
267 1 0.333612 0.284997 0.5
269 1 0.352344 0.296145 0.5
271 1 0.378125 0.288604 0.5
273 1 0.403382 0.31689 0.5
275 1 0.428633 0.302809 0.5
277 1 0.44952 0.291231 0.5
279 1 0.468068 0.309759 0.5
281 1 0.501477 0.30165 0.5
283 1 0.522848 0.29972 0.5
285 1 0.54703 0.282979 0.5
287 1 0.571756 0.301653 0.5
289 1 0.597517 0.302894 0.5
291 1 0.630543 0.286998 0.5
293 1 0.650029 0.297147 0.5
295 1 0.671001 0.306049 0.5
297 1 0.701634 0.297625 0.5
299 1 0.734648 0.288426 0.5
301 1 0.752088 0.319037 0.5
303 1 0.767523 0.291549 0.5
305 1 0.805793 0.309174 0.5
307 1 0.828803 0.292514 0.5
309 1 0.855451 0.295528 0.5
311 1 0.876961 0.298075 0.5
313 1 0.902007 0.286849 0.5
315 1 0.925192 0.298639 0.5
317 1 0.954381 0.307725 0.5
319 1 0.976514 0.318155 0.5
242 1 0.00994923 0.364854 0.5
244 1 0.0352714 0.341159 0.5
246 1 0.0684796 0.337811 0.5
248 1 0.0867388 0.34751 0.5
250 1 0.115668 0.350896 0.5
252 1 0.134818 0.350685 0.5
254 1 0.154376 0.341239 0.5
268 1 0.343657 0.337171 0.5
270 1 0.372069 0.335906 0.5
272 1 0.393684 0.35392 0.5
274 1 0.413737 0.359641 0.5
276 1 0.439223 0.35877 0.5
278 1 0.459195 0.349737 0.5
280 1 0.486606 0.336982 0.5
282 1 0.510698 0.344584 0.5
284 1 0.535764 0.351718 0.5
286 1 0.561407 0.358271 0.5
288 1 0.584593 0.336629 0.5
290 1 0.612953 0.331637 0.5
292 1 0.639233 0.3433 0.5
294 1 0.657322 0.344115 0.5
296 1 0.687705 0.334189 0.5
298 1 0.710926 0.339191 0.5
300 1 0.737668 0.357154 0.5
302 1 0.772611 0.33928 0.5
304 1 0.791663 0.355681 0.5
306 1 0.819283 0.347632 0.5
308 1 0.839059 0.347097 0.5
310 1 0.86088 0.33955 0.5
312 1 0.886696 0.338091 0.5
314 1 0.911037 0.327781 0.5
316 1 0.935613 0.346785 0.5
318 1 0.964899 0.352709 0.5
320 1 0.991291 0.354365 0.5
321 1 0.996405 0.401396 0.5
323 1 0.0220836 0.399689 0.5
325 1 0.0426551 0.391232 0.5
327 1 0.0740713 0.415195 0.5
329 1 0.106104 0.393751 0.5
331 1 0.12798 0.391133 0.5
333 1 0.153859 0.403011 0.5
347 1 0.352185 0.413095 0.5
349 1 0.356935 0.367538 0.5
351 1 0.379346 0.387017 0.5
353 1 0.415803 0.410584 0.5
355 1 0.434244 0.415778 0.5
357 1 0.453577 0.39108 0.5
359 1 0.47215 0.389816 0.5
361 1 0.499211 0.403384 0.5
363 1 0.529706 0.402826 0.5
365 1 0.550667 0.400137 0.5
367 1 0.584682 0.393145 0.5
369 1 0.609541 0.389883 0.5
371 1 0.631364 0.389576 0.5
373 1 0.653818 0.392012 0.5
375 1 0.675025 0.393016 0.5
377 1 0.695585 0.399252 0.5
379 1 0.73088 0.40176 0.5
381 1 0.75937 0.407319 0.5
383 1 0.780188 0.393008 0.5
385 1 0.800521 0.393657 0.5
387 1 0.8217 0.396929 0.5
389 1 0.853673 0.398415 0.5
391 1 0.883685 0.399787 0.5
393 1 0.906679 0.380029 0.5
395 1 0.925532 0.399957 0.5
397 1 0.956698 0.395511 0.5
399 1 0.975973 0.396927 0.5
322 1 0.011947 0.438991 0.5
324 1 0.042854 0.440088 0.5
326 1 0.0651889 0.455761 0.5
328 1 0.0884254 0.453138 0.5
330 1 0.115505 0.459553 0.5
332 1 0.135869 0.439072 0.5
334 1 0.153508 0.464351 0.5
348 1 0.343656 0.455964 0.5
350 1 0.365177 0.442121 0.5
352 1 0.38381 0.451632 0.5
354 1 0.415933 0.451566 0.5
356 1 0.435153 0.459466 0.5
358 1 0.457846 0.450243 0.5
360 1 0.483109 0.432676 0.5
362 1 0.514142 0.438126 0.5
364 1 0.543354 0.438485 0.5
366 1 0.560696 0.473402 0.5
368 1 0.590258 0.459107 0.5
370 1 0.615378 0.454152 0.5
372 1 0.64452 0.446957 0.5
374 1 0.664274 0.437977 0.5
376 1 0.683592 0.437115 0.5
378 1 0.713626 0.452327 0.5
380 1 0.737212 0.449852 0.5
382 1 0.761362 0.454178 0.5
384 1 0.789441 0.432932 0.5
386 1 0.809348 0.445326 0.5
388 1 0.839355 0.444706 0.5
390 1 0.868532 0.430105 0.5
392 1 0.885061 0.460077 0.5
394 1 0.916779 0.447467 0.5
396 1 0.938315 0.43625 0.5
398 1 0.965201 0.434891 0.5
400 1 0.980336 0.465207 0.5
401 1 0.00467813 0.482818 0.5
403 1 0.0286865 0.495132 0.5
405 1 0.0486486 0.487258 0.5
407 1 0.0791113 0.500826 0.5
409 1 0.102842 0.499239 0.5
411 1 0.123865 0.504012 0.5
413 1 0.143942 0.520039 0.5
415 1 0.166517 0.496081 0.5
427 1 0.338184 0.520615 0.5
429 1 0.355097 0.499897 0.5
431 1 0.37522 0.506295 0.5
433 1 0.401717 0.482401 0.5
435 1 0.421557 0.494464 0.5
437 1 0.449847 0.491797 0.5
439 1 0.467688 0.493716 0.5
441 1 0.496172 0.473797 0.5
443 1 0.529545 0.472097 0.5
445 1 0.547151 0.507654 0.5
447 1 0.57886 0.493589 0.5
449 1 0.606155 0.493466 0.5
451 1 0.626607 0.510766 0.5
453 1 0.646137 0.499259 0.5
455 1 0.680427 0.505815 0.5
457 1 0.704986 0.497355 0.5
459 1 0.727585 0.493369 0.5
461 1 0.752026 0.496018 0.5
463 1 0.780752 0.500033 0.5
465 1 0.800762 0.487335 0.5
467 1 0.825679 0.476517 0.5
469 1 0.847436 0.508798 0.5
471 1 0.868766 0.500618 0.5
473 1 0.904051 0.504692 0.5
475 1 0.925136 0.504788 0.5
477 1 0.946384 0.490846 0.5
479 1 0.979196 0.513942 0.5
402 1 0.0144048 0.530681 0.5
404 1 0.0426804 0.558391 0.5
406 1 0.0625497 0.554643 0.5